3
Lattice="4.12605070262 0.0 0.0 -2.06302535131 3.57326472577 0.0 0.0 0.0 18.1312754335" Properties=species:S:1:pos:R:3:initial_magmoms:R:1:Z:I:1:forces:R:3:magmoms:R:1:dipole:R:1 energy=-12.9519900734255 free_energy=-12.95199117836 pbc="T T F" magmom=2.99999999326358 stress="9.71555832107e-05 1.65911424597e-18 0.0 1.65911424597e-18 9.71555832107e-05 7.777098028e-20 0.0 7.777098028e-20 -7.17524346066e-05"
V       0.00000000      -0.00000000       9.06563772       1.00000000       23       0.00000000       0.00000000       0.00000003       2.63358805      -0.00000000
I       2.06302535       1.19108824      10.63303664       0.10000000       53       0.00000000       0.00000000       0.00792029      -0.03990743       0.00000000
I      -0.00000000       2.38217648       7.49823879       0.10000000       53      -0.00000000       0.00000000      -0.00792046      -0.03990743      -0.00000000
