
     Program PWSCF v.6.3 starts on 18Jan2019 at 18:36:17 

     This program is part of the open-source Quantum ESPRESSO suite
     for quantum simulation of materials; please cite
         "P. Giannozzi et al., J. Phys.:Condens. Matter 21 395502 (2009);
         "P. Giannozzi et al., J. Phys.:Condens. Matter 29 465901 (2017);
          URL http://www.quantum-espresso.org", 
     in publications or presentations arising from this work. More details at
     http://www.quantum-espresso.org/quote

     Parallel version (MPI), running on    40 processors

     MPI processes distributed on     2 nodes
     R & G space division:  proc/nbgrp/npool/nimage =      40
     Reading input from /scratch/beachk2/Korea/W-V-Se/noSOC/Wvac/nscf.in
Warning: card &IONS ignored
Warning: card   BFGS_NDIM         = 2, ignored
Warning: card / ignored
Warning: card &CELL ignored
Warning: card PRESS=0 ignored
Warning: card CELL_DOFREE='ALL' ignored
Warning: card PRESS_CONV_THR=0.1 ignored
Warning: card / ignored

     Current dimensions of program PWSCF are:
     Max number of different atomic species (ntypx) = 10
     Max number of k-points (npk) =  40000
     Max angular momentum in pseudopotentials (lmaxx) =  3

     Atomic positions and unit cell read from directory:
     /scratch/beachk2/Korea/W-V-Se/noSOC/Wvac/v.save/
 
     Message from routine read_upf::
     Pseudo file /scratch/beachk2/Korea/W-V-Se/W.pbesol-spn-kjpaw_psl.0.2.3.UPF has been successfully fixed on the fly.
To avoid this message in the future you can permanently fix 
 your pseudo files following instructions given in: 
https://gitlab.com/QEF/q-e/blob/master/upftools/how_to_fix_upf.md
               file W.pbesol-spn-kjpaw_psl.0.2.3.UPF: wavefunction(s)  5D renormalized
     Message from routine read_upf::
     Pseudo file /scratch/beachk2/Korea/W-V-Se/Se.pbesol-n-kjpaw_psl.0.2.UPF has been successfully fixed on the fly.
To avoid this message in the future you can permanently fix 
 your pseudo files following instructions given in: 
https://gitlab.com/QEF/q-e/blob/master/upftools/how_to_fix_upf.md
               file Se.pbesol-n-kjpaw_psl.0.2.UPF: wavefunction(s)  4S renormalized

     Subspace diagonalization in iterative solution of the eigenvalue problem:
     one sub-group per band group will be used
     scalapack distributed-memory algorithm (size of sub-group:  4*  4 procs)

 
     Parallelization info
     --------------------
     sticks:   dense  smooth     PW     G-vecs:    dense   smooth      PW
     Min         285     285     73                25086    25086    3301
     Max         286     286     74                25092    25092    3304
     Sum       11425   11425   2941              1003523  1003523  132103
 


     bravais-lattice index     =            0
     lattice parameter (alat)  =      37.1609  a.u.
     unit-cell volume          =   45199.1818 (a.u.)^3
     number of atoms/cell      =          107
     number of atomic types    =            2
     number of electrons       =       922.00
     number of Kohn-Sham states=          553
     kinetic-energy cutoff     =      30.0000  Ry
     charge density cutoff     =     120.0000  Ry
     Exchange-correlation      = SLA PW PSX PSC ( 1  4 10  8 0 0)

     celldm(1)=  37.160864  celldm(2)=   1.000000  celldm(3)=   1.017051
     celldm(4)=  -0.500000  celldm(5)=   0.000000  celldm(6)=   0.000000

     crystal axes: (cart. coord. in units of alat)
               a(1) = (   1.000000   0.000000   0.000000 )  
               a(2) = (  -0.500000   0.866025   0.000000 )  
               a(3) = (   0.000000   0.000000   1.017051 )  

     reciprocal axes: (cart. coord. in units 2 pi/alat)
               b(1) = (  1.000000  0.577350  0.000000 )  
               b(2) = (  0.000000  1.154701  0.000000 )  
               b(3) = (  0.000000  0.000000  0.983235 )  


     PseudoPot. # 1 for W  read from file:
     /scratch/beachk2/Korea/W-V-Se/W.pbesol-spn-kjpaw_psl.0.2.3.UPF
     MD5 check sum: 3489c92d351ecbcf2c7b5f80874fc77e
     Pseudo is Projector augmented-wave + core cor, Zval = 14.0
     Generated using "atomic" code by A. Dal Corso v.5.0.99 svn rev. 10869
     Shape of augmentation charge: BESSEL
     Using radial grid of 1273 points,  6 beta functions with: 
                l(1) =   0
                l(2) =   0
                l(3) =   1
                l(4) =   1
                l(5) =   2
                l(6) =   2
     Q(r) pseudized with 0 coefficients 


     PseudoPot. # 2 for Se read from file:
     /scratch/beachk2/Korea/W-V-Se/Se.pbesol-n-kjpaw_psl.0.2.UPF
     MD5 check sum: de07b397db81a61c301b7fc26c6d7f40
     Pseudo is Projector augmented-wave + core cor, Zval =  6.0
     Generated using "atomic" code by A. Dal Corso v.5.0.99 svn rev. 10869
     Shape of augmentation charge: PSQ
     Using radial grid of 1211 points,  4 beta functions with: 
                l(1) =   0
                l(2) =   0
                l(3) =   1
                l(4) =   1
     Q(r) pseudized with 0 coefficients 


     atomic species   valence    mass     pseudopotential
        W             14.00   183.84000     W ( 1.00)
        Se             6.00    78.96000     Se( 1.00)

     No symmetry found



   Cartesian axes

     site n.     atom                  positions (alat units)
         1           W   tau(   1) = (  -0.1665654   0.3837085   0.3681748  )
         2           W   tau(   2) = (   0.0010835   0.3854039   0.3681649  )
         3           W   tau(   3) = (   0.1667867   0.3852129   0.3681721  )
         4           W   tau(   4) = (   0.3324762   0.3853714   0.3681655  )
         5           W   tau(   5) = (  -0.2513137   0.5305827   0.3681792  )
         6           W   tau(   6) = (  -0.0838709   0.5293047   0.3681800  )
         7           W   tau(   7) = (   0.0833073   0.5296707   0.3681724  )
         8           W   tau(   8) = (   0.2503375   0.5296697   0.3681727  )
         9           W   tau(   9) = (   0.5001090   0.3836671   0.3681755  )
        10           W   tau(  10) = (   0.4174910   0.5292940   0.3681795  )
        11           W   tau(  11) = (   0.5849156   0.5305583   0.3681787  )
        12           W   tau(  12) = (  -0.3331782   0.6746437   0.3681827  )
        13           W   tau(  13) = (  -0.1659798   0.6748661   0.3681651  )
        14           W   tau(  14) = (   0.0000859   0.6738576   0.3681721  )
        15           W   tau(  15) = (   0.1668460   0.6740104   0.3681641  )
        16           W   tau(  16) = (  -0.4165315   0.8185364   0.3681733  )
        17           W   tau(  17) = (  -0.2498262   0.8185150   0.3681751  )
        18           W   tau(  18) = (  -0.0832639   0.8184089   0.3681732  )
        19           W   tau(  19) = (   0.0835999   0.8185013   0.3681698  )
        20           W   tau(  20) = (   0.0002305   0.0966313   0.3681706  )
        21           W   tau(  21) = (   0.1667970   0.0966886   0.3681648  )
        22           W   tau(  22) = (   0.3333612   0.0965790   0.3681716  )
        23           W   tau(  23) = (   0.4996900   0.0957922   0.3681651  )
        24           W   tau(  24) = (  -0.0827395   0.2407550   0.3681776  )
        25           W   tau(  25) = (   0.0835649   0.2409620   0.3681724  )
        26           W   tau(  26) = (   0.2499895   0.2409345   0.3681724  )
        27           W   tau(  27) = (   0.4162839   0.2406976   0.3681782  )
        28           W   tau(  28) = (   0.3335920   0.6738742   0.3681719  )
        29           W   tau(  29) = (   0.4996302   0.6748891   0.3681664  )
        30           W   tau(  30) = (   0.2500753   0.8185199   0.3681694  )
        31           W   tau(  31) = (   0.4169231   0.8184583   0.3681723  )
        32           W   tau(  32) = (   0.6667999   0.0974585   0.3681780  )
        33           W   tau(  33) = (   0.8339064   0.0958436   0.3681640  )
        34           W   tau(  34) = (   0.5819726   0.2418296   0.3681748  )
        35           W   tau(  35) = (   0.7515457   0.2418697   0.3681786  )
        36           Se  tau(  36) = (  -0.0821561   0.3370493   0.2830704  )
        37           Se  tau(  37) = (   0.0838248   0.3370706   0.2827682  )
        38           Se  tau(  38) = (   0.2497289   0.3370439   0.2827698  )
        39           Se  tau(  39) = (   0.4156925   0.3369958   0.2830734  )
        40           Se  tau(  40) = (  -0.1678841   0.4808383   0.2835568  )
        41           Se  tau(  41) = (  -0.0001564   0.4816347   0.2829762  )
        42           Se  tau(  42) = (   0.1668190   0.4816030   0.2830729  )
        43           Se  tau(  43) = (   0.3337772   0.4816100   0.2829781  )
        44           Se  tau(  44) = (  -0.0821495   0.3370535   0.4532735  )
        45           Se  tau(  45) = (   0.0838216   0.3370726   0.4535711  )
        46           Se  tau(  46) = (   0.2497314   0.3370457   0.4535703  )
        47           Se  tau(  47) = (   0.4156858   0.3370000   0.4532717  )
        48           Se  tau(  48) = (  -0.1678843   0.4808361   0.4527995  )
        49           Se  tau(  49) = (  -0.0001511   0.4816281   0.4533677  )
        50           Se  tau(  50) = (   0.1668185   0.4816030   0.4532722  )
        51           Se  tau(  51) = (   0.3337728   0.4816039   0.4533667  )
        52           Se  tau(  52) = (   0.5829569   0.3369472   0.2836719  )
        53           Se  tau(  53) = (   0.7505472   0.3370051   0.2836908  )
        54           Se  tau(  54) = (   0.5014790   0.4808053   0.2835589  )
        55           Se  tau(  55) = (   0.6667997   0.4821708   0.2836783  )
        56           Se  tau(  56) = (   0.5829521   0.3369472   0.4526766  )
        57           Se  tau(  57) = (   0.7505508   0.3370018   0.4526629  )
        58           Se  tau(  58) = (   0.5014790   0.4808031   0.4527968  )
        59           Se  tau(  59) = (   0.6668027   0.4821791   0.4526840  )
        60           Se  tau(  60) = (  -0.2494942   0.6270060   0.2830692  )
        61           Se  tau(  61) = (  -0.0832708   0.6256368   0.2829792  )
        62           Se  tau(  62) = (   0.0834859   0.6258786   0.2829878  )
        63           Se  tau(  63) = (   0.2502035   0.6258817   0.2829879  )
        64           Se  tau(  64) = (  -0.3331785   0.7705704   0.2828776  )
        65           Se  tau(  65) = (  -0.1664530   0.7706798   0.2827674  )
        66           Se  tau(  66) = (   0.0002217   0.7702091   0.2830704  )
        67           Se  tau(  67) = (   0.1668476   0.7702635   0.2829840  )
        68           Se  tau(  68) = (   0.0835375   0.0486413   0.2829433  )
        69           Se  tau(  69) = (   0.2500564   0.0486137   0.2829426  )
        70           Se  tau(  70) = (   0.4164757   0.0482914   0.2827683  )
        71           Se  tau(  71) = (   0.5836754   0.0487734   0.2829767  )
        72           Se  tau(  72) = (   0.0003415   0.1927909   0.2828729  )
        73           Se  tau(  73) = (   0.1667737   0.1928122   0.2829406  )
        74           Se  tau(  74) = (   0.3332059   0.1927356   0.2828748  )
        75           Se  tau(  75) = (   0.4993784   0.1920425   0.2830643  )
        76           Se  tau(  76) = (  -0.2494834   0.6270099   0.4532805  )
        77           Se  tau(  77) = (  -0.0832734   0.6256439   0.4533650  )
        78           Se  tau(  78) = (   0.0834895   0.6258802   0.4533512  )
        79           Se  tau(  79) = (   0.2502000   0.6258840   0.4533518  )
        80           Se  tau(  80) = (  -0.3331796   0.7705759   0.4534777  )
        81           Se  tau(  81) = (  -0.1664509   0.7706762   0.4535746  )
        82           Se  tau(  82) = (   0.0002230   0.7702100   0.4532740  )
        83           Se  tau(  83) = (   0.1668479   0.7702605   0.4533530  )
        84           Se  tau(  84) = (   0.0835401   0.0486453   0.4533950  )
        85           Se  tau(  85) = (   0.2500526   0.0486185   0.4533985  )
        86           Se  tau(  86) = (   0.4164794   0.0482940   0.4535711  )
        87           Se  tau(  87) = (   0.5836684   0.0487724   0.4533646  )
        88           Se  tau(  88) = (   0.0003440   0.1927880   0.4534757  )
        89           Se  tau(  89) = (   0.1667737   0.1928074   0.4533991  )
        90           Se  tau(  90) = (   0.3332032   0.1927336   0.4534750  )
        91           Se  tau(  91) = (   0.4993804   0.1920353   0.4532798  )
        92           Se  tau(  92) = (   0.4169347   0.6256386   0.2829813  )
        93           Se  tau(  93) = (   0.5831301   0.6270027   0.2830772  )
        94           Se  tau(  94) = (   0.3334619   0.7702350   0.2830716  )
        95           Se  tau(  95) = (   0.5001066   0.7707099   0.2827673  )
        96           Se  tau(  96) = (   0.7499459   0.0487963   0.2829775  )
        97           Se  tau(  97) = (   0.9171305   0.0483493   0.2827666  )
        98           Se  tau(  98) = (   0.6667701   0.1944484   0.2835566  )
        99           Se  tau(  99) = (   0.8341587   0.1921051   0.2830685  )
       100           Se  tau( 100) = (   0.4169363   0.6256450   0.4533633  )
       101           Se  tau( 101) = (   0.5831210   0.6270056   0.4532741  )
       102           Se  tau( 102) = (   0.3334610   0.7702363   0.4532718  )
       103           Se  tau( 103) = (   0.5001053   0.7707084   0.4535743  )
       104           Se  tau( 104) = (   0.7499532   0.0487953   0.4533627  )
       105           Se  tau( 105) = (   0.9171278   0.0483519   0.4535711  )
       106           Se  tau( 106) = (   0.6667688   0.1944494   0.4527968  )
       107           Se  tau( 107) = (   0.8341590   0.1920959   0.4532763  )

     number of k points=    10  Marzari-Vanderbilt smearing, width (Ry)=  0.0050
                       cart. coord. in units 2pi/alat
        k(    1) = (   0.0000000   0.0000000   0.0000000), wk =   0.1250000
        k(    2) = (   0.0000000   0.2886753   0.0000000), wk =   0.2500000
        k(    3) = (   0.0000000  -0.5773505   0.0000000), wk =   0.1250000
        k(    4) = (   0.2500000   0.4330129   0.0000000), wk =   0.2500000
        k(    5) = (  -0.2500000   0.1443377   0.0000000), wk =   0.2500000
        k(    6) = (   0.2500000   0.1443376   0.0000000), wk =   0.2500000
        k(    7) = (   0.5000000  -0.2886753   0.0000000), wk =   0.1250000
        k(    8) = (  -0.5000000  -0.2886752   0.0000000), wk =   0.1250000
        k(    9) = (  -0.2500000   0.4330129   0.0000000), wk =   0.2500000
        k(   10) = (   0.5000000  -0.0000000   0.0000000), wk =   0.2500000

     Dense  grid:  1003523 G-vectors     FFT dimensions: ( 135, 135, 135)

     Estimated max dynamical RAM per process >     445.29 MB

     Estimated total dynamical RAM >      17.39 GB

     Check: negative/imaginary core charge=   -0.000012    0.000000

     The potential is recalculated from file :
     /scratch/beachk2/Korea/W-V-Se/noSOC/Wvac/v.save/charge-density.hdf5


     negative rho (up, down):  4.946E-02 0.000E+00
     Starting wfcs are  743 randomized atomic wfcs
     Checking if some PAW data can be deallocated... 

     Band Structure Calculation
     Davidson diagonalization with overlap

     ethr =  1.08E-11,  avg # of iterations = 65.4

     total cpu time spent up to now is     2958.7 secs

     End of band structure calculation

          k = 0.0000 0.0000 0.0000 (125381 PWs)   bands (ev):

   -74.2593 -74.2576 -74.2567 -74.2549 -74.2541 -74.2524 -74.1368 -74.1362
   -74.1353 -74.1152 -74.1141 -74.1134 -74.1115 -74.1102 -74.1101 -74.1081
   -74.1079 -74.1067 -74.1062 -74.1036 -74.1026 -74.1025 -74.0997 -74.0997
   -74.0992 -74.0982 -74.0932 -74.0930 -74.0928 -74.0716 -74.0713 -74.0711
   -74.0704 -74.0704 -74.0701 -38.6040 -38.5932 -38.5923 -38.5453 -38.5445
   -38.5356 -38.4699 -38.4596 -38.4565 -38.4558 -38.4538 -38.4532 -38.4412
   -38.4406 -38.4361 -38.4346 -38.4335 -38.4333 -38.4219 -38.4219 -38.4192
   -38.4190 -38.4172 -38.4171 -38.3992 -38.3991 -38.3984 -38.3935 -38.3935
   -38.3894 -38.3837 -38.3836 -38.3756 -38.3754 -38.3667 -38.3581 -38.3581
   -38.3548 -38.3517 -38.3509 -38.3500 -38.3488 -38.3387 -38.3384 -38.3379
   -38.3340 -38.3338 -38.3285 -38.3284 -38.3252 -38.3250 -38.3238 -38.3228
   -38.3227 -38.3217 -38.3169 -38.3165 -38.3154 -38.3150 -38.3149 -38.3142
   -38.3138 -38.3105 -38.3087 -38.3047 -38.3045 -38.3035 -38.3020 -38.3019
   -38.3001 -38.2955 -38.2955 -38.2884 -38.2838 -38.2833 -38.2833 -38.2832
   -38.2831 -38.2824 -38.2820 -38.2810 -38.2789 -38.2751 -38.2751 -38.2749
   -38.2642 -38.2621 -38.2620 -38.2614 -38.2614 -38.2552 -38.2547 -38.2522
   -38.2521 -38.2486 -38.2453 -38.2451 -38.2300 -38.2297 -38.2247 -38.2220
   -38.2219 -38.2102 -38.2071 -38.2070 -14.9353 -14.5536 -14.5503 -14.5502
   -14.5295 -14.5294 -14.3419 -13.8431 -13.8430 -13.8309 -13.7885 -13.7885
   -13.7175 -13.6653 -13.5577 -13.5577 -13.5558 -13.4803 -13.4787 -13.4785
   -13.4750 -13.4750 -13.4524 -13.4523 -13.3409 -13.3003 -13.1224 -13.1222
   -13.1132 -13.0874 -13.0873 -13.0593 -12.9886 -12.9886 -12.9828 -12.9537
   -12.9536 -12.9326 -12.9312 -12.9312 -12.9280 -12.9280 -12.9274 -12.9240
   -12.9238 -12.9176 -12.9087 -12.9056 -12.9055 -12.8415 -12.6930 -12.6929
   -12.6916 -12.6909 -12.6890 -12.6849 -12.6817 -12.6816 -12.6784 -12.6778
   -12.6768 -12.6675 -12.6674 -12.6642 -12.5319 -12.5319 -12.5222 -12.3453
   -12.2698 -12.2685 -11.9290 -11.9278  -6.5063  -6.5062  -6.4824  -6.3637
    -5.9626  -5.9588  -5.9588  -5.9519  -5.9424  -5.9424  -5.9358  -5.9279
    -5.9277  -5.8821  -5.8812  -5.8811  -5.8574  -5.8572  -5.8476  -5.8474
    -5.7625  -5.6946  -5.6041  -5.6040  -5.5729  -5.5385  -5.5385  -5.5143
    -5.5141  -5.4930  -5.4121  -5.2813  -5.2812  -5.2674  -5.1673  -5.1666
    -5.1666  -5.1627  -5.1622  -5.1621  -5.1559  -5.1451  -5.1450  -5.1447
    -5.1397  -5.1396  -5.1181  -5.0364  -5.0363  -5.0354  -4.9666  -4.9139
    -4.9135  -4.6350  -4.6349  -4.6289  -4.5906  -4.5769  -4.5768  -4.5542
    -4.5540  -4.5247  -4.5246  -4.5095  -4.4771  -4.4771  -4.4756  -4.4314
    -4.4266  -4.4261  -4.4242  -4.4241  -4.3343  -4.3138  -4.3137  -4.3028
    -4.2368  -4.2366  -4.2323  -4.2246  -4.2245  -4.2137  -4.2134  -4.2116
    -4.0294  -3.9544  -3.9542  -3.8539  -3.8012  -3.7852  -3.7851  -3.7677
    -3.7677  -3.6665  -3.6446  -3.6441  -3.5160  -3.5160  -3.5006  -3.4631
    -3.4547  -3.4497  -3.4495  -3.4427  -3.4417  -3.4417  -3.4311  -3.4309
    -3.4302  -3.3879  -3.3815  -3.3813  -3.3241  -3.2981  -3.2980  -3.2915
    -3.2470  -3.2420  -3.2414  -3.1984  -3.1980  -3.1569  -3.0991  -3.0989
    -3.0965  -3.0562  -3.0553  -3.0550  -2.9660  -2.8848  -2.8848  -2.7884
    -2.7883  -2.7785  -2.7783  -2.7766  -2.7426  -2.7376  -2.7375  -2.7329
    -2.7326  -2.7268  -2.7267  -2.6945  -2.6069  -2.6065  -2.5556  -2.4960
    -2.4959  -2.3750  -2.3747  -2.3304  -2.3299  -2.2930  -2.2675  -2.2422
    -2.2419  -2.1170  -2.1118  -2.1116  -2.1098  -2.1015  -2.1011  -2.0951
    -2.0947  -2.0817  -2.0812  -2.0810  -2.0781  -2.0751  -2.0746  -2.0685
    -2.0669  -2.0549  -2.0549  -2.0404  -2.0402  -2.0265  -2.0088  -1.9866
    -1.9862  -1.9859  -1.8806  -1.8759  -1.8756  -1.8609  -1.8535  -1.8534
    -1.8358  -1.7530  -1.7527  -1.4411  -1.4410  -1.4018  -1.3996  -1.3993
    -1.3911  -1.3547  -1.3543  -1.3528  -1.3457  -1.3456  -1.3371  -1.3184
    -1.3181  -1.3107  -1.3106  -1.2879  -1.2878  -1.2714  -1.2517  -1.2110
    -1.2108  -1.1844  -1.1160  -1.1159  -1.0737  -1.0132  -1.0131  -0.9074
    -0.8911  -0.8911  -0.8645  -0.8644  -0.8464  -0.8320  -0.7898  -0.7744
    -0.7742  -0.6885  -0.6881  -0.6849  -0.6648  -0.6645  -0.6192  -0.6093
    -0.6089  -0.6017  -0.6007  -0.6005  -0.5722  -0.5462  -0.5461  -0.5119
    -0.4638  -0.1815  -0.1812   0.2468   0.2474   0.5103   0.5114   0.5830
     1.5659   1.6071   1.6123   1.6123   1.6198   1.6582   1.6584   1.6967
     2.0231   2.0267   2.0269   2.0473   2.0474   2.0577   2.0580   2.0678
     2.0749   2.0752   2.0853   2.1062   2.1065   2.1184   2.1273   2.1275
     2.1317   2.1438   2.1439   2.1784   2.1787   2.1913   2.1915   2.2641
     2.2958   2.2960   2.3000   2.3399   2.3400   2.3814   2.3943   2.4211
     2.4214   2.4407   2.4491   2.4491   2.4974   2.4976   2.4997   2.5070
     2.5075   2.5077   2.5101   2.5430   2.5432   2.5818   2.5821   2.6132
     2.6426   2.6650   2.6696   2.6698   2.6884   2.6951   2.6952   2.7227
     2.7230   2.7527   2.7527   2.7772   2.7789   2.7795   2.7796   2.7911
     2.7914   2.7917   2.7919   2.7969   2.7971   2.7993   2.8259   2.9811
     2.9812   3.1173   3.1280   3.1343   3.1346   3.1408   3.1408   3.1414
     3.1415

          k = 0.0000 0.2887 0.0000 (125428 PWs)   bands (ev):

   -74.2593 -74.2576 -74.2567 -74.2549 -74.2541 -74.2524 -74.1368 -74.1362
   -74.1353 -74.1152 -74.1141 -74.1134 -74.1115 -74.1102 -74.1101 -74.1081
   -74.1079 -74.1067 -74.1062 -74.1036 -74.1026 -74.1025 -74.0997 -74.0996
   -74.0992 -74.0982 -74.0932 -74.0930 -74.0928 -74.0716 -74.0713 -74.0712
   -74.0704 -74.0704 -74.0701 -38.6040 -38.5932 -38.5923 -38.5455 -38.5447
   -38.5354 -38.4691 -38.4596 -38.4563 -38.4550 -38.4538 -38.4532 -38.4412
   -38.4406 -38.4358 -38.4356 -38.4347 -38.4321 -38.4256 -38.4225 -38.4193
   -38.4193 -38.4150 -38.4120 -38.4087 -38.4066 -38.3975 -38.3936 -38.3919
   -38.3864 -38.3819 -38.3778 -38.3737 -38.3724 -38.3696 -38.3588 -38.3547
   -38.3543 -38.3518 -38.3510 -38.3490 -38.3489 -38.3390 -38.3385 -38.3371
   -38.3356 -38.3322 -38.3286 -38.3283 -38.3276 -38.3259 -38.3239 -38.3228
   -38.3214 -38.3195 -38.3159 -38.3158 -38.3154 -38.3151 -38.3146 -38.3140
   -38.3137 -38.3110 -38.3106 -38.3087 -38.3067 -38.3047 -38.3044 -38.3037
   -38.2997 -38.2948 -38.2909 -38.2890 -38.2858 -38.2839 -38.2836 -38.2834
   -38.2830 -38.2824 -38.2818 -38.2813 -38.2811 -38.2748 -38.2738 -38.2730
   -38.2698 -38.2669 -38.2641 -38.2605 -38.2590 -38.2562 -38.2533 -38.2513
   -38.2479 -38.2459 -38.2432 -38.2410 -38.2319 -38.2289 -38.2236 -38.2223
   -38.2216 -38.2104 -38.2101 -38.2075 -14.9105 -14.7052 -14.6150 -14.5618
   -14.4180 -14.3796 -14.2523 -14.0541 -13.9964 -13.8083 -13.7926 -13.7533
   -13.6532 -13.6495 -13.5992 -13.5718 -13.5508 -13.5050 -13.5020 -13.4707
   -13.4026 -13.3877 -13.3777 -13.3386 -13.3036 -13.2226 -13.2190 -13.1914
   -13.1137 -13.1029 -13.0931 -13.0930 -13.0766 -13.0640 -13.0262 -13.0180
   -12.9888 -12.9817 -12.9537 -12.9384 -12.9297 -12.9158 -12.9087 -12.9024
   -12.8899 -12.8750 -12.8389 -12.8164 -12.8058 -12.8013 -12.7696 -12.7589
   -12.7408 -12.7273 -12.6894 -12.6881 -12.6855 -12.6833 -12.6771 -12.6723
   -12.6707 -12.6336 -12.6203 -12.6178 -12.5424 -12.5390 -12.5157 -12.3449
   -12.2712 -12.2690 -11.9290 -11.9278  -6.4645  -6.4549  -6.4276  -6.3317
    -6.1496  -6.1392  -6.0842  -6.0730  -6.0460  -5.9637  -5.9394  -5.9234
    -5.9143  -5.8876  -5.8464  -5.8309  -5.7542  -5.7491  -5.7394  -5.7131
    -5.6843  -5.6800  -5.6640  -5.6255  -5.5405  -5.5112  -5.5111  -5.5097
    -5.4461  -5.3928  -5.3547  -5.3234  -5.3187  -5.3098  -5.2918  -5.2905
    -5.2518  -5.2508  -5.2286  -5.2024  -5.1865  -5.1797  -5.1742  -5.1639
    -5.0919  -5.0791  -5.0663  -5.0399  -5.0261  -4.9476  -4.9333  -4.8485
    -4.8298  -4.7211  -4.6261  -4.6221  -4.6214  -4.6001  -4.5981  -4.5865
    -4.5758  -4.5729  -4.5081  -4.4725  -4.4375  -4.3934  -4.3777  -4.3325
    -4.3262  -4.3242  -4.3111  -4.3027  -4.2939  -4.2902  -4.2868  -4.2845
    -4.2836  -4.2695  -4.2272  -4.2168  -4.1947  -4.1920  -4.1685  -4.1485
    -4.1346  -4.0980  -4.0306  -3.9556  -3.9364  -3.9030  -3.8939  -3.8852
    -3.7504  -3.7409  -3.6109  -3.5724  -3.5665  -3.5634  -3.5286  -3.5213
    -3.4787  -3.4776  -3.4645  -3.4635  -3.4436  -3.4339  -3.4243  -3.4165
    -3.4135  -3.3921  -3.3366  -3.3227  -3.3070  -3.2910  -3.2826  -3.2794
    -3.2395  -3.2076  -3.2068  -3.1796  -3.1626  -3.1556  -3.1396  -3.1013
    -3.0761  -3.0756  -3.0671  -3.0437  -3.0102  -2.9652  -2.9647  -2.9464
    -2.9107  -2.9050  -2.8817  -2.8184  -2.7842  -2.7701  -2.7529  -2.7490
    -2.6468  -2.6214  -2.6073  -2.4838  -2.4567  -2.4554  -2.3755  -2.3670
    -2.3439  -2.3307  -2.3042  -2.2965  -2.2792  -2.2676  -2.2584  -2.2541
    -2.2352  -2.2328  -2.2307  -2.2131  -2.1935  -2.1911  -2.1830  -2.1548
    -2.1451  -2.1366  -2.1194  -2.1066  -2.0909  -2.0589  -2.0489  -2.0429
    -2.0367  -2.0357  -2.0092  -2.0058  -1.9634  -1.9538  -1.9434  -1.9299
    -1.9166  -1.9154  -1.8820  -1.8694  -1.8597  -1.8545  -1.8516  -1.7629
    -1.7408  -1.7021  -1.6798  -1.5671  -1.5656  -1.5236  -1.5158  -1.4978
    -1.4928  -1.4716  -1.4483  -1.4347  -1.3896  -1.3618  -1.3333  -1.3278
    -1.3118  -1.2988  -1.2952  -1.2865  -1.2856  -1.2399  -1.2398  -1.2308
    -1.2149  -1.1074  -1.0993  -1.0646  -1.0304  -0.9857  -0.9796  -0.9129
    -0.8950  -0.8911  -0.8764  -0.8520  -0.8300  -0.7895  -0.7824  -0.7795
    -0.7601  -0.7544  -0.7128  -0.6979  -0.6891  -0.6878  -0.6404  -0.6312
    -0.6140  -0.6113  -0.5865  -0.5654  -0.5323  -0.5021  -0.4902  -0.4626
    -0.4304  -0.2272  -0.2159   0.2506   0.2546   0.4914   0.4959   0.5911
     1.6167   1.6450   1.6658   1.6682   1.6898   1.7016   1.7114   1.7512
     1.8900   1.9201   1.9297   1.9404   1.9480   1.9559   1.9830   2.0071
     2.0342   2.0592   2.0624   2.0684   2.0802   2.1017   2.1126   2.1461
     2.1665   2.1839   2.1920   2.2237   2.2379   2.2767   2.3053   2.3197
     2.3215   2.3367   2.3492   2.3731   2.3749   2.3860   2.4020   2.4089
     2.4118   2.4349   2.4500   2.4695   2.4808   2.4854   2.4855   2.4989
     2.5081   2.5254   2.5465   2.5487   2.5537   2.5732   2.5957   2.6077
     2.6237   2.6309   2.6330   2.6611   2.6633   2.6771   2.6790   2.7160
     2.7207   2.7266   2.7337   2.7410   2.7537   2.7693   2.7889   2.7962
     2.8023   2.8053   2.8501   2.8985   2.9241   2.9286   2.9363   2.9445
     2.9684   2.9691   2.9800   2.9858   3.0130   3.0152   3.0168   3.0499
     3.0552

          k = 0.0000-0.5774 0.0000 (125440 PWs)   bands (ev):

   -74.2593 -74.2576 -74.2567 -74.2549 -74.2541 -74.2524 -74.1368 -74.1362
   -74.1353 -74.1152 -74.1141 -74.1134 -74.1115 -74.1102 -74.1101 -74.1081
   -74.1079 -74.1067 -74.1062 -74.1036 -74.1026 -74.1025 -74.0997 -74.0996
   -74.0992 -74.0982 -74.0932 -74.0930 -74.0928 -74.0716 -74.0713 -74.0712
   -74.0704 -74.0704 -74.0701 -38.6039 -38.5931 -38.5922 -38.5458 -38.5449
   -38.5352 -38.4682 -38.4596 -38.4561 -38.4538 -38.4537 -38.4531 -38.4412
   -38.4406 -38.4380 -38.4347 -38.4343 -38.4317 -38.4265 -38.4241 -38.4211
   -38.4188 -38.4147 -38.4122 -38.4092 -38.4018 -38.3991 -38.3986 -38.3969
   -38.3880 -38.3789 -38.3766 -38.3692 -38.3674 -38.3613 -38.3586 -38.3555
   -38.3546 -38.3544 -38.3520 -38.3510 -38.3492 -38.3391 -38.3384 -38.3370
   -38.3365 -38.3342 -38.3287 -38.3280 -38.3251 -38.3250 -38.3236 -38.3229
   -38.3213 -38.3159 -38.3156 -38.3156 -38.3155 -38.3148 -38.3143 -38.3139
   -38.3134 -38.3117 -38.3113 -38.3088 -38.3084 -38.3080 -38.3047 -38.3042
   -38.3039 -38.2970 -38.2967 -38.2867 -38.2853 -38.2839 -38.2835 -38.2830
   -38.2824 -38.2818 -38.2816 -38.2816 -38.2813 -38.2753 -38.2743 -38.2698
   -38.2694 -38.2675 -38.2645 -38.2638 -38.2589 -38.2579 -38.2543 -38.2492
   -38.2484 -38.2442 -38.2401 -38.2349 -38.2338 -38.2271 -38.2248 -38.2196
   -38.2195 -38.2176 -38.2108 -38.2078 -14.8557 -14.8060 -14.6400 -14.5791
   -14.2673 -14.2452 -14.2403 -14.1745 -14.0679 -13.9807 -13.7615 -13.7613
   -13.7050 -13.6281 -13.6173 -13.5980 -13.5140 -13.4781 -13.3510 -13.3341
   -13.3302 -13.3260 -13.3172 -13.3084 -13.2875 -13.2815 -13.2593 -13.2274
   -13.2168 -13.1766 -13.1682 -13.1417 -13.0860 -13.0857 -13.0847 -13.0393
   -12.9938 -12.9437 -12.9365 -12.9301 -12.9133 -12.9081 -12.8799 -12.8725
   -12.8702 -12.8554 -12.8457 -12.8181 -12.8080 -12.7844 -12.7834 -12.7676
   -12.7438 -12.7411 -12.7110 -12.6894 -12.6882 -12.6860 -12.6841 -12.6770
   -12.6713 -12.6155 -12.5921 -12.5773 -12.5664 -12.5506 -12.5109 -12.3446
   -12.2727 -12.2688 -11.9289 -11.9277  -6.3684  -6.3668  -6.3105  -6.2859
    -6.2653  -6.2557  -6.2293  -6.1963  -6.1345  -6.0373  -5.9928  -5.9232
    -5.8806  -5.8743  -5.8479  -5.8343  -5.7122  -5.7037  -5.6774  -5.6707
    -5.6261  -5.5442  -5.5281  -5.5256  -5.5162  -5.4612  -5.4611  -5.4530
    -5.4465  -5.4453  -5.4201  -5.4184  -5.4113  -5.3830  -5.3375  -5.3310
    -5.3251  -5.2859  -5.2599  -5.2442  -5.2328  -5.1890  -5.1868  -5.1510
    -5.1288  -5.0796  -5.0576  -5.0575  -5.0400  -4.9524  -4.8276  -4.8180
    -4.7400  -4.7387  -4.6198  -4.6019  -4.5808  -4.5761  -4.5560  -4.5431
    -4.4597  -4.4443  -4.4379  -4.4311  -4.4221  -4.4185  -4.4078  -4.3811
    -4.3738  -4.3734  -4.3655  -4.3475  -4.3134  -4.2982  -4.2788  -4.2713
    -4.2518  -4.2040  -4.1983  -4.1731  -4.1613  -4.1502  -4.1171  -4.1134
    -4.0979  -4.0822  -4.0550  -4.0526  -4.0202  -4.0167  -3.9148  -3.8270
    -3.7714  -3.7552  -3.7385  -3.6675  -3.6242  -3.5723  -3.5533  -3.4983
    -3.4961  -3.4842  -3.4837  -3.4835  -3.4650  -3.4542  -3.4421  -3.4393
    -3.4168  -3.4145  -3.4020  -3.3848  -3.3819  -3.3482  -3.2565  -3.2529
    -3.2359  -3.2286  -3.2090  -3.1867  -3.1750  -3.1605  -3.1531  -3.1432
    -3.0971  -3.0824  -3.0724  -3.0087  -2.9952  -2.9648  -2.9503  -2.9332
    -2.8899  -2.8574  -2.7642  -2.7417  -2.7341  -2.7250  -2.6663  -2.6407
    -2.5678  -2.5417  -2.5314  -2.5306  -2.4877  -2.4682  -2.4646  -2.4594
    -2.4135  -2.3536  -2.3454  -2.3322  -2.3306  -2.3219  -2.3150  -2.3022
    -2.2667  -2.2559  -2.2367  -2.2322  -2.2269  -2.2053  -2.2011  -2.1790
    -2.1352  -2.0592  -2.0568  -2.0533  -2.0192  -2.0101  -2.0006  -1.9943
    -1.9199  -1.8993  -1.8966  -1.8914  -1.8880  -1.8848  -1.8659  -1.8447
    -1.8441  -1.8302  -1.8279  -1.8146  -1.7894  -1.7645  -1.7528  -1.7483
    -1.7403  -1.7249  -1.7157  -1.6954  -1.6690  -1.6559  -1.6541  -1.6477
    -1.6329  -1.6044  -1.5791  -1.5580  -1.5308  -1.5074  -1.4362  -1.3634
    -1.3136  -1.3073  -1.2888  -1.2763  -1.2521  -1.2437  -1.1889  -1.1828
    -1.1779  -1.0563  -1.0120  -1.0016  -0.9847  -0.9805  -0.9740  -0.9218
    -0.8874  -0.8623  -0.8600  -0.8502  -0.8275  -0.8265  -0.8047  -0.7983
    -0.7793  -0.7676  -0.7552  -0.7462  -0.6629  -0.6572  -0.6476  -0.6238
    -0.6204  -0.6129  -0.5684  -0.5584  -0.5211  -0.4727  -0.4574  -0.3807
    -0.3675  -0.3043  -0.2753   0.2540   0.2622   0.4740   0.4835   0.5969
     1.7310   1.7490   1.7549   1.7572   1.7635   1.7765   1.7968   1.7980
     1.8127   1.8229   1.8286   1.8598   1.8610   1.8772   1.8867   1.9227
     1.9317   1.9806   2.0060   2.0348   2.0405   2.0642   2.0880   2.1668
     2.1718   2.1925   2.2297   2.2704   2.2968   2.3368   2.3543   2.3566
     2.3691   2.3819   2.3847   2.3951   2.4048   2.4082   2.4296   2.4312
     2.4347   2.4478   2.4538   2.4556   2.4622   2.4799   2.4895   2.4928
     2.4987   2.5073   2.5381   2.5397   2.5540   2.5740   2.5768   2.6120
     2.6208   2.6252   2.6611   2.6738   2.7048   2.7183   2.7212   2.7290
     2.7446   2.7450   2.7490   2.7648   2.7651   2.7915   2.7933   2.7998
     2.8099   2.8255   2.8269   2.8282   2.8329   2.8359   2.8485   2.8507
     2.8884   2.9016   2.9058   2.9570   2.9973   3.0084   3.0441   3.0658
     3.1408

          k = 0.2500 0.4330 0.0000 (125352 PWs)   bands (ev):

   -74.2593 -74.2576 -74.2567 -74.2549 -74.2541 -74.2524 -74.1368 -74.1362
   -74.1353 -74.1152 -74.1141 -74.1134 -74.1115 -74.1102 -74.1101 -74.1081
   -74.1079 -74.1067 -74.1062 -74.1036 -74.1026 -74.1025 -74.0997 -74.0996
   -74.0992 -74.0982 -74.0932 -74.0930 -74.0928 -74.0716 -74.0713 -74.0711
   -74.0704 -74.0704 -74.0701 -38.6039 -38.5931 -38.5922 -38.5457 -38.5449
   -38.5352 -38.4681 -38.4596 -38.4561 -38.4541 -38.4538 -38.4532 -38.4411
   -38.4406 -38.4373 -38.4347 -38.4333 -38.4315 -38.4294 -38.4251 -38.4205
   -38.4187 -38.4144 -38.4107 -38.4078 -38.4047 -38.3994 -38.3991 -38.3941
   -38.3873 -38.3814 -38.3761 -38.3704 -38.3663 -38.3650 -38.3579 -38.3564
   -38.3544 -38.3518 -38.3512 -38.3491 -38.3442 -38.3391 -38.3388 -38.3383
   -38.3367 -38.3364 -38.3287 -38.3286 -38.3279 -38.3249 -38.3233 -38.3230
   -38.3213 -38.3174 -38.3163 -38.3158 -38.3150 -38.3147 -38.3144 -38.3140
   -38.3133 -38.3116 -38.3099 -38.3088 -38.3083 -38.3061 -38.3047 -38.3042
   -38.3039 -38.2943 -38.2932 -38.2896 -38.2889 -38.2844 -38.2839 -38.2835
   -38.2831 -38.2822 -38.2817 -38.2813 -38.2774 -38.2758 -38.2732 -38.2707
   -38.2689 -38.2674 -38.2661 -38.2609 -38.2602 -38.2584 -38.2546 -38.2506
   -38.2486 -38.2444 -38.2380 -38.2342 -38.2317 -38.2282 -38.2245 -38.2234
   -38.2194 -38.2153 -38.2102 -38.2082 -14.8635 -14.7764 -14.7065 -14.4649
   -14.4175 -14.2532 -14.1927 -14.1204 -14.0032 -13.9791 -13.9213 -13.8014
   -13.6308 -13.5874 -13.5445 -13.5414 -13.5294 -13.4888 -13.4262 -13.4003
   -13.3982 -13.3209 -13.3206 -13.2981 -13.2935 -13.2474 -13.2445 -13.1982
   -13.1874 -13.1618 -13.1481 -13.1477 -13.0956 -13.0815 -13.0732 -13.0373
   -12.9933 -12.9742 -12.9707 -12.9505 -12.9268 -12.8920 -12.8884 -12.8689
   -12.8572 -12.8300 -12.8200 -12.8077 -12.7948 -12.7916 -12.7870 -12.7636
   -12.7547 -12.7410 -12.7368 -12.7149 -12.7029 -12.6818 -12.6747 -12.6703
   -12.6283 -12.6178 -12.6114 -12.5816 -12.5607 -12.5494 -12.5112 -12.3446
   -12.2742 -12.2672 -11.9290 -11.9276  -6.4040  -6.3394  -6.3350  -6.2743
    -6.2610  -6.2388  -6.1755  -6.1585  -6.1094  -6.0918  -6.0678  -6.0378
    -5.9126  -5.8476  -5.7770  -5.7250  -5.7073  -5.6900  -5.6637  -5.6507
    -5.6303  -5.5782  -5.5583  -5.5351  -5.5286  -5.4944  -5.4818  -5.4795
    -5.4425  -5.4277  -5.4195  -5.3708  -5.3661  -5.3543  -5.3277  -5.3181
    -5.3176  -5.3127  -5.3064  -5.2903  -5.2363  -5.2022  -5.1968  -5.1264
    -5.1257  -5.1106  -5.0869  -5.0416  -4.9972  -4.9272  -4.9084  -4.8231
    -4.7354  -4.6580  -4.6133  -4.5697  -4.5521  -4.5266  -4.5167  -4.5067
    -4.4957  -4.4839  -4.4556  -4.4424  -4.4188  -4.4063  -4.3883  -4.3877
    -4.3765  -4.3644  -4.3496  -4.3230  -4.3203  -4.3004  -4.3001  -4.2973
    -4.2736  -4.2552  -4.2415  -4.2388  -4.2038  -4.1958  -4.1861  -4.1565
    -4.1386  -4.1158  -4.0219  -3.9434  -3.9363  -3.9059  -3.8766  -3.8358
    -3.7337  -3.7161  -3.6743  -3.6599  -3.5944  -3.5914  -3.5680  -3.5656
    -3.5532  -3.5338  -3.5142  -3.4985  -3.4831  -3.4617  -3.4519  -3.4344
    -3.4306  -3.4122  -3.3614  -3.3347  -3.3231  -3.3020  -3.2930  -3.2808
    -3.2714  -3.2047  -3.2037  -3.2007  -3.1960  -3.1742  -3.1550  -3.1118
    -3.0972  -3.0701  -3.0614  -3.0426  -3.0294  -2.9927  -2.9256  -2.8807
    -2.8662  -2.8599  -2.8291  -2.8148  -2.7794  -2.6994  -2.6913  -2.6249
    -2.6135  -2.5865  -2.5607  -2.4730  -2.4668  -2.4544  -2.3798  -2.3449
    -2.3357  -2.3156  -2.3135  -2.2917  -2.2811  -2.2689  -2.2556  -2.2516
    -2.2420  -2.2401  -2.2337  -2.2330  -2.2176  -2.2163  -2.1949  -2.1851
    -2.1831  -2.1651  -2.1501  -2.1397  -2.1144  -2.1131  -2.1000  -2.0464
    -1.9797  -1.9405  -1.9131  -1.8913  -1.8745  -1.8561  -1.8487  -1.8452
    -1.8393  -1.8342  -1.8190  -1.8112  -1.8024  -1.7691  -1.7662  -1.7264
    -1.7098  -1.7006  -1.6835  -1.6653  -1.6484  -1.6209  -1.6204  -1.6019
    -1.5945  -1.5584  -1.5344  -1.4922  -1.4847  -1.4695  -1.4516  -1.4323
    -1.4167  -1.3649  -1.3171  -1.2884  -1.2718  -1.2252  -1.2097  -1.2010
    -1.1827  -1.0851  -1.0503  -0.9679  -0.9484  -0.9465  -0.9213  -0.9180
    -0.8976  -0.8918  -0.8783  -0.8473  -0.8158  -0.8101  -0.7990  -0.7837
    -0.7663  -0.7656  -0.7480  -0.7283  -0.7194  -0.6883  -0.6849  -0.6463
    -0.6055  -0.5741  -0.5492  -0.5253  -0.5044  -0.4901  -0.4611  -0.4341
    -0.3494  -0.3101  -0.2605   0.2532   0.2630   0.4763   0.4818   0.5968
     1.6978   1.7301   1.7401   1.7440   1.7626   1.7939   1.8138   1.8203
     1.8362   1.8427   1.8599   1.8649   1.8704   1.8803   1.8885   1.9217
     1.9376   1.9666   1.9875   2.0051   2.0069   2.0391   2.0726   2.1567
     2.1991   2.2159   2.2606   2.2751   2.3099   2.3209   2.3456   2.3477
     2.3634   2.3796   2.3904   2.3939   2.4088   2.4095   2.4236   2.4264
     2.4397   2.4462   2.4566   2.4696   2.4739   2.4742   2.4791   2.4862
     2.5339   2.5513   2.5536   2.5769   2.5814   2.5909   2.5980   2.6024
     2.6057   2.6092   2.6148   2.6199   2.6365   2.6413   2.6689   2.6772
     2.6899   2.7530   2.7571   2.7770   2.7917   2.7943   2.8105   2.8130
     2.8311   2.8341   2.8491   2.8505   2.8669   2.8682   2.8818   2.8993
     2.9102   2.9151   2.9792   2.9981   3.0040   3.0351   3.0370   3.0465
     3.0635

          k =-0.2500 0.1443 0.0000 (125428 PWs)   bands (ev):

   -74.2593 -74.2576 -74.2567 -74.2549 -74.2541 -74.2524 -74.1368 -74.1362
   -74.1353 -74.1152 -74.1141 -74.1134 -74.1115 -74.1102 -74.1101 -74.1081
   -74.1079 -74.1067 -74.1062 -74.1036 -74.1026 -74.1025 -74.0997 -74.0996
   -74.0992 -74.0982 -74.0932 -74.0930 -74.0928 -74.0716 -74.0713 -74.0712
   -74.0704 -74.0704 -74.0701 -38.6040 -38.5932 -38.5923 -38.5455 -38.5447
   -38.5354 -38.4692 -38.4596 -38.4563 -38.4548 -38.4538 -38.4532 -38.4412
   -38.4406 -38.4357 -38.4356 -38.4347 -38.4321 -38.4257 -38.4225 -38.4193
   -38.4193 -38.4150 -38.4121 -38.4087 -38.4066 -38.3976 -38.3935 -38.3919
   -38.3865 -38.3819 -38.3777 -38.3738 -38.3724 -38.3695 -38.3588 -38.3547
   -38.3543 -38.3518 -38.3510 -38.3490 -38.3489 -38.3389 -38.3386 -38.3371
   -38.3355 -38.3321 -38.3286 -38.3283 -38.3279 -38.3259 -38.3240 -38.3227
   -38.3214 -38.3195 -38.3159 -38.3158 -38.3154 -38.3149 -38.3147 -38.3141
   -38.3138 -38.3110 -38.3107 -38.3087 -38.3069 -38.3046 -38.3045 -38.3037
   -38.2997 -38.2947 -38.2910 -38.2889 -38.2858 -38.2839 -38.2836 -38.2833
   -38.2831 -38.2823 -38.2819 -38.2812 -38.2811 -38.2748 -38.2739 -38.2730
   -38.2697 -38.2670 -38.2641 -38.2605 -38.2591 -38.2563 -38.2532 -38.2513
   -38.2479 -38.2461 -38.2430 -38.2410 -38.2317 -38.2291 -38.2237 -38.2223
   -38.2215 -38.2103 -38.2101 -38.2076 -14.9105 -14.7052 -14.6151 -14.5617
   -14.4180 -14.3796 -14.2523 -14.0541 -13.9964 -13.8082 -13.7926 -13.7532
   -13.6532 -13.6495 -13.5993 -13.5718 -13.5508 -13.5050 -13.5020 -13.4705
   -13.4026 -13.3877 -13.3777 -13.3387 -13.3036 -13.2227 -13.2190 -13.1915
   -13.1138 -13.1028 -13.0931 -13.0931 -13.0765 -13.0639 -13.0261 -13.0181
   -12.9888 -12.9817 -12.9537 -12.9382 -12.9297 -12.9159 -12.9088 -12.9025
   -12.8898 -12.8752 -12.8387 -12.8164 -12.8058 -12.8014 -12.7697 -12.7590
   -12.7406 -12.7275 -12.6891 -12.6878 -12.6854 -12.6833 -12.6776 -12.6723
   -12.6709 -12.6335 -12.6203 -12.6178 -12.5424 -12.5390 -12.5157 -12.3449
   -12.2705 -12.2696 -11.9289 -11.9278  -6.4644  -6.4548  -6.4277  -6.3317
    -6.1496  -6.1392  -6.0842  -6.0730  -6.0461  -5.9637  -5.9394  -5.9234
    -5.9143  -5.8875  -5.8464  -5.8308  -5.7543  -5.7489  -5.7394  -5.7130
    -5.6844  -5.6801  -5.6639  -5.6256  -5.5404  -5.5112  -5.5111  -5.5098
    -5.4461  -5.3928  -5.3546  -5.3235  -5.3188  -5.3098  -5.2918  -5.2905
    -5.2518  -5.2506  -5.2286  -5.2024  -5.1865  -5.1798  -5.1741  -5.1640
    -5.0917  -5.0792  -5.0662  -5.0399  -5.0263  -4.9477  -4.9332  -4.8484
    -4.8298  -4.7211  -4.6260  -4.6223  -4.6213  -4.6002  -4.5981  -4.5865
    -4.5759  -4.5728  -4.5080  -4.4725  -4.4375  -4.3934  -4.3777  -4.3325
    -4.3263  -4.3241  -4.3109  -4.3027  -4.2941  -4.2901  -4.2868  -4.2845
    -4.2837  -4.2694  -4.2273  -4.2167  -4.1947  -4.1919  -4.1685  -4.1486
    -4.1345  -4.0980  -4.0307  -3.9557  -3.9363  -3.9030  -3.8940  -3.8852
    -3.7504  -3.7409  -3.6111  -3.5723  -3.5663  -3.5635  -3.5287  -3.5213
    -3.4786  -3.4776  -3.4645  -3.4635  -3.4435  -3.4339  -3.4242  -3.4166
    -3.4135  -3.3922  -3.3365  -3.3227  -3.3069  -3.2908  -3.2826  -3.2796
    -3.2395  -3.2076  -3.2067  -3.1797  -3.1627  -3.1552  -3.1397  -3.1015
    -3.0762  -3.0757  -3.0669  -3.0435  -3.0103  -2.9655  -2.9646  -2.9465
    -2.9107  -2.9050  -2.8817  -2.8184  -2.7845  -2.7699  -2.7528  -2.7491
    -2.6468  -2.6211  -2.6071  -2.4837  -2.4568  -2.4556  -2.3754  -2.3668
    -2.3438  -2.3310  -2.3043  -2.2966  -2.2792  -2.2679  -2.2583  -2.2539
    -2.2352  -2.2329  -2.2306  -2.2131  -2.1935  -2.1911  -2.1828  -2.1547
    -2.1453  -2.1365  -2.1192  -2.1064  -2.0909  -2.0588  -2.0490  -2.0429
    -2.0368  -2.0356  -2.0093  -2.0056  -1.9633  -1.9543  -1.9438  -1.9299
    -1.9164  -1.9155  -1.8821  -1.8693  -1.8594  -1.8544  -1.8516  -1.7629
    -1.7408  -1.7021  -1.6798  -1.5673  -1.5656  -1.5236  -1.5158  -1.4976
    -1.4928  -1.4715  -1.4481  -1.4345  -1.3898  -1.3618  -1.3336  -1.3281
    -1.3118  -1.2987  -1.2951  -1.2864  -1.2858  -1.2400  -1.2394  -1.2307
    -1.2149  -1.1076  -1.0994  -1.0645  -1.0303  -0.9856  -0.9796  -0.9130
    -0.8950  -0.8910  -0.8763  -0.8521  -0.8301  -0.7893  -0.7824  -0.7795
    -0.7601  -0.7546  -0.7127  -0.6981  -0.6891  -0.6875  -0.6403  -0.6312
    -0.6141  -0.6115  -0.5865  -0.5652  -0.5324  -0.5022  -0.4900  -0.4626
    -0.4306  -0.2271  -0.2160   0.2502   0.2550   0.4906   0.4968   0.5911
     1.6167   1.6450   1.6659   1.6681   1.6899   1.7015   1.7114   1.7512
     1.8899   1.9200   1.9296   1.9403   1.9481   1.9559   1.9830   2.0072
     2.0343   2.0591   2.0623   2.0685   2.0801   2.1018   2.1127   2.1461
     2.1664   2.1841   2.1922   2.2239   2.2378   2.2768   2.3052   2.3196
     2.3220   2.3361   2.3492   2.3734   2.3751   2.3856   2.4021   2.4088
     2.4117   2.4349   2.4501   2.4697   2.4807   2.4854   2.4855   2.4988
     2.5082   2.5257   2.5462   2.5485   2.5537   2.5731   2.5959   2.6075
     2.6237   2.6310   2.6330   2.6611   2.6635   2.6771   2.6790   2.7161
     2.7207   2.7265   2.7339   2.7409   2.7535   2.7692   2.7889   2.7961
     2.8023   2.8054   2.8502   2.8984   2.9241   2.9287   2.9361   2.9445
     2.9684   2.9690   2.9802   2.9859   3.0128   3.0154   3.0167   3.0499
     3.0553

          k = 0.2500 0.1443 0.0000 (125428 PWs)   bands (ev):

   -74.2593 -74.2576 -74.2567 -74.2549 -74.2541 -74.2524 -74.1368 -74.1362
   -74.1353 -74.1152 -74.1141 -74.1134 -74.1115 -74.1102 -74.1101 -74.1081
   -74.1079 -74.1067 -74.1062 -74.1036 -74.1026 -74.1025 -74.0997 -74.0996
   -74.0992 -74.0982 -74.0932 -74.0930 -74.0928 -74.0716 -74.0713 -74.0712
   -74.0704 -74.0704 -74.0701 -38.6040 -38.5932 -38.5923 -38.5456 -38.5447
   -38.5354 -38.4691 -38.4596 -38.4559 -38.4554 -38.4538 -38.4532 -38.4412
   -38.4406 -38.4359 -38.4357 -38.4347 -38.4321 -38.4255 -38.4225 -38.4193
   -38.4193 -38.4149 -38.4119 -38.4088 -38.4066 -38.3975 -38.3937 -38.3919
   -38.3864 -38.3819 -38.3779 -38.3737 -38.3723 -38.3697 -38.3588 -38.3547
   -38.3543 -38.3517 -38.3511 -38.3489 -38.3489 -38.3390 -38.3384 -38.3372
   -38.3357 -38.3324 -38.3285 -38.3283 -38.3273 -38.3259 -38.3239 -38.3229
   -38.3215 -38.3195 -38.3160 -38.3158 -38.3154 -38.3152 -38.3145 -38.3140
   -38.3138 -38.3110 -38.3105 -38.3087 -38.3066 -38.3047 -38.3044 -38.3037
   -38.2996 -38.2949 -38.2909 -38.2891 -38.2858 -38.2838 -38.2836 -38.2834
   -38.2831 -38.2822 -38.2819 -38.2814 -38.2811 -38.2748 -38.2739 -38.2729
   -38.2699 -38.2668 -38.2642 -38.2604 -38.2590 -38.2561 -38.2533 -38.2514
   -38.2480 -38.2459 -38.2433 -38.2410 -38.2319 -38.2288 -38.2235 -38.2224
   -38.2216 -38.2104 -38.2102 -38.2074 -14.9105 -14.7052 -14.6150 -14.5619
   -14.4180 -14.3796 -14.2523 -14.0541 -13.9963 -13.8083 -13.7925 -13.7534
   -13.6532 -13.6496 -13.5992 -13.5718 -13.5507 -13.5050 -13.5020 -13.4708
   -13.4025 -13.3876 -13.3777 -13.3386 -13.3036 -13.2226 -13.2190 -13.1914
   -13.1137 -13.1030 -13.0931 -13.0930 -13.0767 -13.0640 -13.0262 -13.0180
   -12.9888 -12.9817 -12.9537 -12.9387 -12.9297 -12.9158 -12.9085 -12.9024
   -12.8899 -12.8750 -12.8390 -12.8164 -12.8057 -12.8013 -12.7696 -12.7588
   -12.7408 -12.7273 -12.6897 -12.6883 -12.6855 -12.6832 -12.6769 -12.6723
   -12.6707 -12.6335 -12.6203 -12.6178 -12.5424 -12.5390 -12.5157 -12.3449
   -12.2715 -12.2686 -11.9290 -11.9277  -6.4645  -6.4549  -6.4276  -6.3317
    -6.1496  -6.1391  -6.0842  -6.0730  -6.0460  -5.9637  -5.9394  -5.9234
    -5.9143  -5.8876  -5.8464  -5.8309  -5.7541  -5.7491  -5.7394  -5.7131
    -5.6843  -5.6799  -5.6641  -5.6255  -5.5405  -5.5112  -5.5111  -5.5097
    -5.4461  -5.3927  -5.3547  -5.3233  -5.3187  -5.3098  -5.2919  -5.2905
    -5.2519  -5.2509  -5.2286  -5.2024  -5.1865  -5.1797  -5.1742  -5.1639
    -5.0919  -5.0790  -5.0664  -5.0399  -5.0261  -4.9476  -4.9334  -4.8485
    -4.8298  -4.7211  -4.6262  -4.6221  -4.6214  -4.6001  -4.5980  -4.5865
    -4.5758  -4.5730  -4.5081  -4.4725  -4.4375  -4.3934  -4.3777  -4.3325
    -4.3263  -4.3242  -4.3112  -4.3026  -4.2939  -4.2902  -4.2868  -4.2845
    -4.2836  -4.2695  -4.2272  -4.2168  -4.1947  -4.1920  -4.1685  -4.1485
    -4.1346  -4.0979  -4.0306  -3.9556  -3.9364  -3.9029  -3.8940  -3.8852
    -3.7504  -3.7409  -3.6107  -3.5724  -3.5667  -3.5634  -3.5287  -3.5213
    -3.4787  -3.4777  -3.4645  -3.4635  -3.4435  -3.4340  -3.4243  -3.4163
    -3.4134  -3.3921  -3.3365  -3.3226  -3.3069  -3.2911  -3.2826  -3.2795
    -3.2395  -3.2075  -3.2069  -3.1796  -3.1626  -3.1556  -3.1396  -3.1013
    -3.0761  -3.0756  -3.0671  -3.0437  -3.0102  -2.9651  -2.9647  -2.9463
    -2.9108  -2.9050  -2.8816  -2.8184  -2.7842  -2.7701  -2.7529  -2.7490
    -2.6467  -2.6215  -2.6073  -2.4838  -2.4567  -2.4554  -2.3754  -2.3670
    -2.3439  -2.3307  -2.3042  -2.2965  -2.2792  -2.2675  -2.2585  -2.2540
    -2.2352  -2.2328  -2.2307  -2.2132  -2.1936  -2.1911  -2.1829  -2.1548
    -2.1452  -2.1365  -2.1195  -2.1066  -2.0909  -2.0589  -2.0489  -2.0429
    -2.0368  -2.0357  -2.0092  -2.0058  -1.9635  -1.9538  -1.9434  -1.9299
    -1.9166  -1.9154  -1.8821  -1.8693  -1.8596  -1.8544  -1.8516  -1.7629
    -1.7408  -1.7021  -1.6799  -1.5671  -1.5656  -1.5236  -1.5157  -1.4979
    -1.4929  -1.4717  -1.4482  -1.4347  -1.3896  -1.3618  -1.3334  -1.3277
    -1.3118  -1.2986  -1.2953  -1.2864  -1.2856  -1.2399  -1.2399  -1.2308
    -1.2149  -1.1074  -1.0993  -1.0646  -1.0304  -0.9857  -0.9796  -0.9129
    -0.8950  -0.8911  -0.8764  -0.8520  -0.8300  -0.7895  -0.7824  -0.7794
    -0.7601  -0.7545  -0.7127  -0.6979  -0.6891  -0.6878  -0.6404  -0.6314
    -0.6138  -0.6115  -0.5865  -0.5653  -0.5323  -0.5021  -0.4902  -0.4626
    -0.4304  -0.2273  -0.2159   0.2501   0.2551   0.4914   0.4959   0.5912
     1.6167   1.6450   1.6658   1.6682   1.6899   1.7017   1.7113   1.7511
     1.8899   1.9201   1.9297   1.9404   1.9480   1.9560   1.9830   2.0072
     2.0340   2.0592   2.0622   2.0685   2.0804   2.1016   2.1128   2.1461
     2.1665   2.1839   2.1920   2.2236   2.2380   2.2767   2.3053   2.3198
     2.3214   2.3368   2.3492   2.3731   2.3750   2.3860   2.4020   2.4088
     2.4118   2.4350   2.4500   2.4694   2.4808   2.4855   2.4855   2.4990
     2.5081   2.5254   2.5465   2.5487   2.5537   2.5732   2.5957   2.6078
     2.6237   2.6310   2.6329   2.6611   2.6633   2.6771   2.6791   2.7160
     2.7206   2.7266   2.7336   2.7410   2.7539   2.7693   2.7889   2.7962
     2.8021   2.8053   2.8500   2.8985   2.9240   2.9286   2.9363   2.9444
     2.9684   2.9691   2.9800   2.9858   3.0130   3.0152   3.0169   3.0498
     3.0553

          k = 0.5000-0.2887 0.0000 (125440 PWs)   bands (ev):

   -74.2593 -74.2576 -74.2567 -74.2549 -74.2541 -74.2524 -74.1368 -74.1362
   -74.1353 -74.1152 -74.1141 -74.1134 -74.1115 -74.1102 -74.1101 -74.1081
   -74.1079 -74.1067 -74.1062 -74.1036 -74.1026 -74.1025 -74.0997 -74.0996
   -74.0992 -74.0982 -74.0932 -74.0930 -74.0928 -74.0716 -74.0713 -74.0712
   -74.0704 -74.0704 -74.0701 -38.6039 -38.5931 -38.5922 -38.5457 -38.5450
   -38.5352 -38.4683 -38.4596 -38.4561 -38.4538 -38.4535 -38.4531 -38.4412
   -38.4406 -38.4379 -38.4347 -38.4344 -38.4315 -38.4266 -38.4242 -38.4212
   -38.4188 -38.4147 -38.4122 -38.4092 -38.4018 -38.3991 -38.3986 -38.3970
   -38.3880 -38.3789 -38.3766 -38.3692 -38.3674 -38.3613 -38.3585 -38.3554
   -38.3544 -38.3544 -38.3520 -38.3510 -38.3492 -38.3390 -38.3385 -38.3368
   -38.3364 -38.3342 -38.3287 -38.3280 -38.3255 -38.3251 -38.3237 -38.3228
   -38.3213 -38.3159 -38.3157 -38.3156 -38.3155 -38.3147 -38.3143 -38.3139
   -38.3135 -38.3117 -38.3113 -38.3088 -38.3084 -38.3080 -38.3046 -38.3044
   -38.3038 -38.2969 -38.2968 -38.2868 -38.2852 -38.2840 -38.2834 -38.2831
   -38.2822 -38.2817 -38.2817 -38.2815 -38.2813 -38.2750 -38.2743 -38.2698
   -38.2696 -38.2675 -38.2646 -38.2639 -38.2590 -38.2578 -38.2543 -38.2493
   -38.2483 -38.2444 -38.2398 -38.2349 -38.2338 -38.2272 -38.2249 -38.2196
   -38.2195 -38.2176 -38.2106 -38.2080 -14.8556 -14.8061 -14.6400 -14.5790
   -14.2673 -14.2452 -14.2404 -14.1746 -14.0680 -13.9806 -13.7615 -13.7612
   -13.7049 -13.6280 -13.6174 -13.5982 -13.5140 -13.4780 -13.3511 -13.3341
   -13.3302 -13.3260 -13.3171 -13.3084 -13.2875 -13.2817 -13.2593 -13.2274
   -13.2169 -13.1765 -13.1682 -13.1417 -13.0861 -13.0856 -13.0848 -13.0392
   -12.9939 -12.9439 -12.9362 -12.9301 -12.9132 -12.9082 -12.8799 -12.8725
   -12.8703 -12.8555 -12.8456 -12.8183 -12.8077 -12.7842 -12.7834 -12.7677
   -12.7439 -12.7411 -12.7110 -12.6891 -12.6878 -12.6859 -12.6842 -12.6775
   -12.6716 -12.6154 -12.5922 -12.5773 -12.5663 -12.5506 -12.5109 -12.3446
   -12.2720 -12.2695 -11.9288 -11.9279  -6.3684  -6.3666  -6.3106  -6.2859
    -6.2652  -6.2557  -6.2296  -6.1964  -6.1345  -6.0373  -5.9928  -5.9231
    -5.8807  -5.8743  -5.8478  -5.8342  -5.7121  -5.7036  -5.6772  -5.6710
    -5.6263  -5.5442  -5.5280  -5.5257  -5.5159  -5.4612  -5.4611  -5.4530
    -5.4464  -5.4454  -5.4199  -5.4186  -5.4113  -5.3833  -5.3375  -5.3313
    -5.3251  -5.2859  -5.2597  -5.2442  -5.2328  -5.1892  -5.1868  -5.1508
    -5.1288  -5.0796  -5.0576  -5.0575  -5.0400  -4.9524  -4.8276  -4.8180
    -4.7399  -4.7388  -4.6198  -4.6019  -4.5807  -4.5761  -4.5558  -4.5429
    -4.4598  -4.4443  -4.4379  -4.4312  -4.4221  -4.4186  -4.4078  -4.3814
    -4.3738  -4.3734  -4.3655  -4.3478  -4.3132  -4.2982  -4.2788  -4.2712
    -4.2517  -4.2040  -4.1984  -4.1732  -4.1613  -4.1500  -4.1171  -4.1133
    -4.0980  -4.0822  -4.0550  -4.0525  -4.0200  -4.0168  -3.9150  -3.8270
    -3.7718  -3.7554  -3.7384  -3.6672  -3.6242  -3.5724  -3.5533  -3.4982
    -3.4958  -3.4841  -3.4836  -3.4835  -3.4647  -3.4535  -3.4421  -3.4392
    -3.4167  -3.4145  -3.4029  -3.3849  -3.3820  -3.3481  -3.2562  -3.2531
    -3.2360  -3.2286  -3.2090  -3.1868  -3.1755  -3.1600  -3.1535  -3.1430
    -3.0966  -3.0823  -3.0727  -3.0087  -2.9950  -2.9649  -2.9504  -2.9333
    -2.8902  -2.8573  -2.7641  -2.7418  -2.7341  -2.7251  -2.6667  -2.6410
    -2.5678  -2.5419  -2.5313  -2.5302  -2.4879  -2.4682  -2.4641  -2.4597
    -2.4133  -2.3537  -2.3454  -2.3321  -2.3306  -2.3219  -2.3149  -2.3025
    -2.2666  -2.2560  -2.2364  -2.2323  -2.2267  -2.2051  -2.2014  -2.1788
    -2.1353  -2.0595  -2.0566  -2.0531  -2.0191  -2.0102  -2.0006  -1.9944
    -1.9199  -1.8997  -1.8971  -1.8913  -1.8883  -1.8846  -1.8658  -1.8445
    -1.8443  -1.8303  -1.8276  -1.8144  -1.7893  -1.7646  -1.7532  -1.7484
    -1.7402  -1.7248  -1.7146  -1.6952  -1.6689  -1.6560  -1.6538  -1.6476
    -1.6327  -1.6053  -1.5792  -1.5575  -1.5306  -1.5075  -1.4364  -1.3639
    -1.3136  -1.3077  -1.2888  -1.2762  -1.2526  -1.2437  -1.1883  -1.1826
    -1.1779  -1.0564  -1.0121  -1.0016  -0.9850  -0.9806  -0.9741  -0.9215
    -0.8874  -0.8621  -0.8598  -0.8502  -0.8276  -0.8265  -0.8044  -0.7983
    -0.7793  -0.7677  -0.7555  -0.7464  -0.6628  -0.6571  -0.6476  -0.6237
    -0.6206  -0.6129  -0.5682  -0.5585  -0.5210  -0.4730  -0.4574  -0.3806
    -0.3677  -0.3042  -0.2752   0.2536   0.2627   0.4731   0.4844   0.5968
     1.7310   1.7490   1.7550   1.7573   1.7635   1.7764   1.7968   1.7978
     1.8125   1.8229   1.8285   1.8600   1.8608   1.8772   1.8867   1.9227
     1.9319   1.9804   2.0060   2.0349   2.0402   2.0644   2.0881   2.1666
     2.1721   2.1926   2.2299   2.2707   2.2968   2.3367   2.3546   2.3564
     2.3689   2.3817   2.3851   2.3949   2.4050   2.4082   2.4297   2.4309
     2.4348   2.4475   2.4540   2.4558   2.4622   2.4799   2.4894   2.4925
     2.4989   2.5070   2.5382   2.5398   2.5538   2.5740   2.5769   2.6118
     2.6210   2.6254   2.6615   2.6730   2.7045   2.7183   2.7212   2.7292
     2.7444   2.7452   2.7488   2.7650   2.7651   2.7916   2.7933   2.7997
     2.8096   2.8260   2.8269   2.8282   2.8330   2.8358   2.8485   2.8505
     2.8886   2.9019   2.9055   2.9572   2.9974   3.0084   3.0442   3.0658
     3.1409

          k =-0.5000-0.2887 0.0000 (125440 PWs)   bands (ev):

   -74.2593 -74.2576 -74.2567 -74.2549 -74.2541 -74.2524 -74.1368 -74.1362
   -74.1353 -74.1152 -74.1141 -74.1134 -74.1115 -74.1102 -74.1101 -74.1081
   -74.1079 -74.1067 -74.1062 -74.1036 -74.1026 -74.1025 -74.0997 -74.0997
   -74.0992 -74.0982 -74.0932 -74.0930 -74.0928 -74.0716 -74.0713 -74.0712
   -74.0704 -74.0704 -74.0701 -38.6040 -38.5931 -38.5923 -38.5458 -38.5449
   -38.5353 -38.4681 -38.4596 -38.4559 -38.4541 -38.4538 -38.4532 -38.4412
   -38.4406 -38.4381 -38.4347 -38.4343 -38.4317 -38.4264 -38.4239 -38.4211
   -38.4188 -38.4145 -38.4120 -38.4093 -38.4019 -38.3992 -38.3987 -38.3969
   -38.3880 -38.3790 -38.3765 -38.3691 -38.3675 -38.3613 -38.3587 -38.3556
   -38.3547 -38.3544 -38.3517 -38.3514 -38.3490 -38.3392 -38.3383 -38.3371
   -38.3366 -38.3342 -38.3286 -38.3280 -38.3249 -38.3247 -38.3236 -38.3230
   -38.3214 -38.3158 -38.3156 -38.3155 -38.3155 -38.3150 -38.3143 -38.3137
   -38.3134 -38.3117 -38.3112 -38.3088 -38.3084 -38.3079 -38.3048 -38.3041
   -38.3039 -38.2970 -38.2967 -38.2867 -38.2853 -38.2839 -38.2835 -38.2832
   -38.2821 -38.2819 -38.2819 -38.2818 -38.2813 -38.2755 -38.2743 -38.2697
   -38.2694 -38.2673 -38.2644 -38.2637 -38.2588 -38.2579 -38.2543 -38.2493
   -38.2484 -38.2441 -38.2402 -38.2350 -38.2338 -38.2269 -38.2247 -38.2196
   -38.2195 -38.2177 -38.2110 -38.2077 -14.8557 -14.8059 -14.6400 -14.5791
   -14.2673 -14.2452 -14.2404 -14.1744 -14.0679 -13.9807 -13.7614 -13.7614
   -13.7051 -13.6281 -13.6173 -13.5980 -13.5140 -13.4782 -13.3510 -13.3340
   -13.3302 -13.3259 -13.3172 -13.3084 -13.2874 -13.2814 -13.2594 -13.2273
   -13.2168 -13.1766 -13.1683 -13.1417 -13.0859 -13.0858 -13.0847 -13.0393
   -12.9939 -12.9437 -12.9368 -12.9300 -12.9133 -12.9079 -12.8798 -12.8725
   -12.8702 -12.8554 -12.8457 -12.8181 -12.8080 -12.7845 -12.7834 -12.7674
   -12.7438 -12.7409 -12.7111 -12.6897 -12.6884 -12.6859 -12.6841 -12.6768
   -12.6713 -12.6156 -12.5921 -12.5772 -12.5664 -12.5506 -12.5109 -12.3446
   -12.2732 -12.2684 -11.9291 -11.9276  -6.3684  -6.3669  -6.3104  -6.2859
    -6.2654  -6.2557  -6.2292  -6.1962  -6.1345  -6.0373  -5.9928  -5.9232
    -5.8807  -5.8743  -5.8479  -5.8344  -5.7122  -5.7037  -5.6774  -5.6707
    -5.6259  -5.5441  -5.5282  -5.5257  -5.5162  -5.4611  -5.4611  -5.4530
    -5.4466  -5.4453  -5.4202  -5.4183  -5.4112  -5.3829  -5.3375  -5.3309
    -5.3251  -5.2859  -5.2600  -5.2442  -5.2329  -5.1890  -5.1868  -5.1510
    -5.1288  -5.0796  -5.0576  -5.0573  -5.0401  -4.9524  -4.8276  -4.8181
    -4.7402  -4.7387  -4.6198  -4.6018  -4.5808  -4.5761  -4.5560  -4.5431
    -4.4597  -4.4443  -4.4378  -4.4311  -4.4220  -4.4186  -4.4078  -4.3811
    -4.3739  -4.3733  -4.3655  -4.3475  -4.3135  -4.2981  -4.2788  -4.2713
    -4.2518  -4.2040  -4.1983  -4.1731  -4.1614  -4.1502  -4.1171  -4.1134
    -4.0978  -4.0822  -4.0551  -4.0527  -4.0203  -4.0168  -3.9147  -3.8271
    -3.7713  -3.7553  -3.7383  -3.6676  -3.6242  -3.5723  -3.5533  -3.4984
    -3.4960  -3.4844  -3.4837  -3.4834  -3.4652  -3.4544  -3.4422  -3.4392
    -3.4169  -3.4145  -3.4016  -3.3847  -3.3817  -3.3482  -3.2565  -3.2529
    -3.2360  -3.2285  -3.2090  -3.1868  -3.1750  -3.1605  -3.1531  -3.1432
    -3.0970  -3.0823  -3.0725  -3.0087  -2.9954  -2.9648  -2.9504  -2.9331
    -2.8900  -2.8574  -2.7643  -2.7418  -2.7342  -2.7250  -2.6664  -2.6407
    -2.5677  -2.5417  -2.5314  -2.5306  -2.4877  -2.4682  -2.4646  -2.4594
    -2.4136  -2.3536  -2.3454  -2.3322  -2.3305  -2.3219  -2.3150  -2.3021
    -2.2667  -2.2558  -2.2366  -2.2324  -2.2269  -2.2053  -2.2012  -2.1790
    -2.1352  -2.0593  -2.0568  -2.0532  -2.0192  -2.0101  -2.0006  -1.9945
    -1.9197  -1.8993  -1.8966  -1.8914  -1.8879  -1.8848  -1.8660  -1.8447
    -1.8441  -1.8302  -1.8280  -1.8144  -1.7894  -1.7646  -1.7527  -1.7483
    -1.7402  -1.7249  -1.7158  -1.6954  -1.6689  -1.6558  -1.6541  -1.6479
    -1.6330  -1.6042  -1.5791  -1.5582  -1.5309  -1.5074  -1.4361  -1.3633
    -1.3135  -1.3073  -1.2887  -1.2764  -1.2521  -1.2437  -1.1889  -1.1828
    -1.1779  -1.0563  -1.0120  -1.0016  -0.9846  -0.9805  -0.9742  -0.9218
    -0.8874  -0.8623  -0.8599  -0.8503  -0.8276  -0.8265  -0.8048  -0.7984
    -0.7793  -0.7676  -0.7549  -0.7463  -0.6631  -0.6571  -0.6478  -0.6236
    -0.6206  -0.6129  -0.5685  -0.5584  -0.5211  -0.4727  -0.4573  -0.3807
    -0.3675  -0.3044  -0.2752   0.2535   0.2627   0.4740   0.4834   0.5969
     1.7311   1.7489   1.7547   1.7571   1.7635   1.7765   1.7970   1.7979
     1.8127   1.8229   1.8288   1.8597   1.8611   1.8772   1.8864   1.9227
     1.9317   1.9807   2.0060   2.0349   2.0404   2.0641   2.0882   2.1667
     2.1718   2.1925   2.2297   2.2703   2.2968   2.3367   2.3545   2.3563
     2.3691   2.3818   2.3846   2.3951   2.4050   2.4083   2.4296   2.4312
     2.4346   2.4478   2.4538   2.4555   2.4624   2.4798   2.4896   2.4927
     2.4987   2.5074   2.5381   2.5398   2.5540   2.5740   2.5769   2.6121
     2.6209   2.6251   2.6610   2.6739   2.7049   2.7181   2.7212   2.7290
     2.7446   2.7448   2.7493   2.7648   2.7652   2.7915   2.7934   2.7998
     2.8099   2.8253   2.8271   2.8282   2.8328   2.8359   2.8484   2.8507
     2.8882   2.9016   2.9058   2.9570   2.9972   3.0084   3.0441   3.0657
     3.1408

          k =-0.2500 0.4330 0.0000 (125352 PWs)   bands (ev):

   -74.2593 -74.2576 -74.2567 -74.2549 -74.2541 -74.2524 -74.1368 -74.1362
   -74.1353 -74.1152 -74.1141 -74.1134 -74.1115 -74.1102 -74.1101 -74.1081
   -74.1079 -74.1067 -74.1062 -74.1036 -74.1026 -74.1025 -74.0997 -74.0996
   -74.0992 -74.0982 -74.0932 -74.0930 -74.0928 -74.0716 -74.0713 -74.0711
   -74.0704 -74.0704 -74.0701 -38.6039 -38.5931 -38.5922 -38.5457 -38.5449
   -38.5352 -38.4682 -38.4596 -38.4563 -38.4538 -38.4536 -38.4532 -38.4412
   -38.4405 -38.4371 -38.4347 -38.4334 -38.4315 -38.4294 -38.4251 -38.4205
   -38.4187 -38.4146 -38.4108 -38.4075 -38.4049 -38.3995 -38.3990 -38.3942
   -38.3872 -38.3814 -38.3762 -38.3702 -38.3662 -38.3651 -38.3578 -38.3561
   -38.3544 -38.3520 -38.3510 -38.3492 -38.3442 -38.3391 -38.3387 -38.3384
   -38.3366 -38.3365 -38.3289 -38.3287 -38.3280 -38.3250 -38.3236 -38.3229
   -38.3213 -38.3174 -38.3160 -38.3159 -38.3150 -38.3147 -38.3143 -38.3140
   -38.3135 -38.3116 -38.3100 -38.3088 -38.3081 -38.3065 -38.3046 -38.3043
   -38.3039 -38.2942 -38.2932 -38.2899 -38.2890 -38.2840 -38.2838 -38.2834
   -38.2831 -38.2822 -38.2816 -38.2813 -38.2773 -38.2755 -38.2734 -38.2705
   -38.2689 -38.2675 -38.2662 -38.2609 -38.2602 -38.2585 -38.2546 -38.2505
   -38.2485 -38.2445 -38.2379 -38.2341 -38.2316 -38.2282 -38.2248 -38.2235
   -38.2193 -38.2151 -38.2100 -38.2084 -14.8634 -14.7765 -14.7064 -14.4649
   -14.4175 -14.2532 -14.1928 -14.1204 -14.0031 -13.9790 -13.9212 -13.8015
   -13.6307 -13.5876 -13.5445 -13.5413 -13.5293 -13.4887 -13.4262 -13.4003
   -13.3983 -13.3209 -13.3206 -13.2983 -13.2937 -13.2475 -13.2444 -13.1981
   -13.1873 -13.1617 -13.1481 -13.1478 -13.0956 -13.0815 -13.0731 -13.0373
   -12.9934 -12.9742 -12.9705 -12.9504 -12.9269 -12.8920 -12.8885 -12.8691
   -12.8573 -12.8300 -12.8199 -12.8077 -12.7947 -12.7916 -12.7870 -12.7636
   -12.7545 -12.7411 -12.7369 -12.7149 -12.7029 -12.6819 -12.6749 -12.6702
   -12.6282 -12.6179 -12.6113 -12.5817 -12.5606 -12.5494 -12.5113 -12.3446
   -12.2739 -12.2675 -11.9289 -11.9278  -6.4038  -6.3395  -6.3351  -6.2742
    -6.2610  -6.2388  -6.1757  -6.1586  -6.1092  -6.0918  -6.0677  -6.0378
    -5.9127  -5.8476  -5.7771  -5.7249  -5.7072  -5.6902  -5.6638  -5.6505
    -5.6302  -5.5783  -5.5584  -5.5350  -5.5285  -5.4946  -5.4819  -5.4795
    -5.4425  -5.4276  -5.4196  -5.3707  -5.3662  -5.3543  -5.3277  -5.3182
    -5.3175  -5.3127  -5.3064  -5.2903  -5.2364  -5.2020  -5.1967  -5.1265
    -5.1258  -5.1105  -5.0870  -5.0415  -4.9972  -4.9272  -4.9085  -4.8231
    -4.7355  -4.6580  -4.6131  -4.5697  -4.5521  -4.5267  -4.5165  -4.5068
    -4.4957  -4.4838  -4.4556  -4.4424  -4.4189  -4.4061  -4.3883  -4.3877
    -4.3765  -4.3643  -4.3497  -4.3230  -4.3206  -4.3003  -4.2999  -4.2973
    -4.2736  -4.2552  -4.2413  -4.2388  -4.2038  -4.1958  -4.1862  -4.1565
    -4.1386  -4.1157  -4.0219  -3.9433  -3.9363  -3.9059  -3.8765  -3.8364
    -3.7336  -3.7161  -3.6738  -3.6602  -3.5943  -3.5915  -3.5678  -3.5657
    -3.5531  -3.5338  -3.5143  -3.4984  -3.4830  -3.4616  -3.4519  -3.4345
    -3.4305  -3.4118  -3.3623  -3.3346  -3.3228  -3.3020  -3.2931  -3.2808
    -3.2715  -3.2045  -3.2038  -3.2006  -3.1964  -3.1736  -3.1553  -3.1118
    -3.0973  -3.0702  -3.0614  -3.0427  -3.0292  -2.9926  -2.9255  -2.8808
    -2.8662  -2.8601  -2.8291  -2.8149  -2.7795  -2.6994  -2.6910  -2.6251
    -2.6136  -2.5862  -2.5608  -2.4731  -2.4670  -2.4544  -2.3797  -2.3449
    -2.3360  -2.3155  -2.3136  -2.2917  -2.2814  -2.2690  -2.2553  -2.2518
    -2.2421  -2.2398  -2.2334  -2.2329  -2.2176  -2.2163  -2.1948  -2.1850
    -2.1831  -2.1653  -2.1500  -2.1397  -2.1145  -2.1132  -2.0999  -2.0467
    -1.9797  -1.9405  -1.9130  -1.8915  -1.8743  -1.8557  -1.8488  -1.8454
    -1.8393  -1.8342  -1.8192  -1.8118  -1.8024  -1.7689  -1.7660  -1.7269
    -1.7096  -1.7005  -1.6827  -1.6649  -1.6484  -1.6209  -1.6208  -1.6019
    -1.5946  -1.5583  -1.5344  -1.4922  -1.4849  -1.4695  -1.4517  -1.4324
    -1.4171  -1.3649  -1.3165  -1.2889  -1.2719  -1.2247  -1.2103  -1.2007
    -1.1827  -1.0851  -1.0505  -0.9681  -0.9482  -0.9462  -0.9215  -0.9179
    -0.8978  -0.8919  -0.8783  -0.8475  -0.8157  -0.8098  -0.7988  -0.7838
    -0.7664  -0.7658  -0.7483  -0.7282  -0.7195  -0.6882  -0.6848  -0.6461
    -0.6053  -0.5740  -0.5492  -0.5252  -0.5047  -0.4901  -0.4613  -0.4338
    -0.3496  -0.3102  -0.2604   0.2532   0.2630   0.4756   0.4825   0.5967
     1.6977   1.7301   1.7402   1.7441   1.7627   1.7938   1.8139   1.8203
     1.8364   1.8424   1.8597   1.8648   1.8703   1.8803   1.8886   1.9217
     1.9378   1.9666   1.9874   2.0052   2.0069   2.0391   2.0727   2.1567
     2.1991   2.2159   2.2605   2.2753   2.3100   2.3211   2.3456   2.3480
     2.3633   2.3794   2.3903   2.3939   2.4089   2.4096   2.4234   2.4263
     2.4396   2.4460   2.4568   2.4694   2.4740   2.4742   2.4791   2.4860
     2.5340   2.5512   2.5535   2.5766   2.5815   2.5909   2.5980   2.6025
     2.6057   2.6094   2.6146   2.6201   2.6365   2.6412   2.6690   2.6773
     2.6900   2.7530   2.7569   2.7770   2.7916   2.7941   2.8106   2.8130
     2.8308   2.8338   2.8489   2.8507   2.8670   2.8686   2.8816   2.8993
     2.9101   2.9155   2.9792   2.9982   3.0039   3.0355   3.0372   3.0466
     3.0634

          k = 0.5000-0.0000 0.0000 (125352 PWs)   bands (ev):

   -74.2593 -74.2576 -74.2567 -74.2549 -74.2541 -74.2524 -74.1368 -74.1362
   -74.1353 -74.1152 -74.1141 -74.1134 -74.1115 -74.1102 -74.1101 -74.1081
   -74.1079 -74.1067 -74.1062 -74.1036 -74.1026 -74.1025 -74.0997 -74.0996
   -74.0992 -74.0982 -74.0932 -74.0930 -74.0928 -74.0716 -74.0713 -74.0711
   -74.0704 -74.0704 -74.0701 -38.6039 -38.5931 -38.5922 -38.5457 -38.5449
   -38.5352 -38.4682 -38.4596 -38.4561 -38.4539 -38.4538 -38.4532 -38.4412
   -38.4405 -38.4372 -38.4347 -38.4333 -38.4315 -38.4294 -38.4251 -38.4205
   -38.4187 -38.4144 -38.4108 -38.4077 -38.4048 -38.3994 -38.3990 -38.3941
   -38.3873 -38.3814 -38.3761 -38.3703 -38.3663 -38.3650 -38.3578 -38.3562
   -38.3544 -38.3519 -38.3512 -38.3491 -38.3442 -38.3391 -38.3387 -38.3383
   -38.3366 -38.3364 -38.3287 -38.3287 -38.3280 -38.3250 -38.3234 -38.3229
   -38.3213 -38.3174 -38.3162 -38.3158 -38.3151 -38.3147 -38.3144 -38.3140
   -38.3134 -38.3116 -38.3099 -38.3088 -38.3082 -38.3062 -38.3046 -38.3042
   -38.3039 -38.2942 -38.2932 -38.2898 -38.2889 -38.2841 -38.2839 -38.2835
   -38.2832 -38.2821 -38.2818 -38.2812 -38.2774 -38.2756 -38.2733 -38.2706
   -38.2689 -38.2675 -38.2661 -38.2609 -38.2602 -38.2584 -38.2547 -38.2506
   -38.2486 -38.2445 -38.2379 -38.2342 -38.2317 -38.2282 -38.2246 -38.2235
   -38.2193 -38.2152 -38.2101 -38.2083 -14.8635 -14.7765 -14.7065 -14.4649
   -14.4175 -14.2533 -14.1928 -14.1204 -14.0032 -13.9790 -13.9212 -13.8014
   -13.6307 -13.5875 -13.5445 -13.5413 -13.5293 -13.4887 -13.4262 -13.4003
   -13.3982 -13.3209 -13.3206 -13.2983 -13.2936 -13.2474 -13.2445 -13.1982
   -13.1873 -13.1617 -13.1481 -13.1478 -13.0956 -13.0815 -13.0731 -13.0373
   -12.9934 -12.9742 -12.9706 -12.9504 -12.9269 -12.8920 -12.8884 -12.8690
   -12.8573 -12.8300 -12.8199 -12.8077 -12.7948 -12.7915 -12.7869 -12.7636
   -12.7546 -12.7412 -12.7368 -12.7149 -12.7029 -12.6819 -12.6749 -12.6702
   -12.6282 -12.6179 -12.6113 -12.5817 -12.5606 -12.5494 -12.5113 -12.3446
   -12.2741 -12.2674 -11.9290 -11.9277  -6.4039  -6.3395  -6.3352  -6.2742
    -6.2610  -6.2387  -6.1756  -6.1586  -6.1093  -6.0918  -6.0677  -6.0378
    -5.9127  -5.8476  -5.7771  -5.7249  -5.7073  -5.6901  -5.6638  -5.6505
    -5.6302  -5.5783  -5.5584  -5.5351  -5.5286  -5.4945  -5.4819  -5.4795
    -5.4425  -5.4276  -5.4196  -5.3708  -5.3661  -5.3543  -5.3277  -5.3182
    -5.3176  -5.3127  -5.3064  -5.2903  -5.2364  -5.2021  -5.1968  -5.1265
    -5.1258  -5.1106  -5.0870  -5.0415  -4.9972  -4.9272  -4.9085  -4.8231
    -4.7354  -4.6580  -4.6132  -4.5697  -4.5521  -4.5267  -4.5166  -4.5068
    -4.4957  -4.4838  -4.4555  -4.4424  -4.4189  -4.4062  -4.3882  -4.3877
    -4.3765  -4.3644  -4.3496  -4.3230  -4.3205  -4.3004  -4.3000  -4.2973
    -4.2736  -4.2552  -4.2414  -4.2388  -4.2038  -4.1958  -4.1862  -4.1565
    -4.1386  -4.1157  -4.0219  -3.9433  -3.9363  -3.9059  -3.8766  -3.8363
    -3.7335  -3.7163  -3.6740  -3.6601  -3.5943  -3.5915  -3.5678  -3.5657
    -3.5532  -3.5339  -3.5143  -3.4984  -3.4830  -3.4616  -3.4518  -3.4345
    -3.4305  -3.4119  -3.3621  -3.3346  -3.3229  -3.3020  -3.2931  -3.2809
    -3.2714  -3.2046  -3.2038  -3.2006  -3.1964  -3.1735  -3.1554  -3.1119
    -3.0972  -3.0702  -3.0615  -3.0428  -3.0292  -2.9926  -2.9255  -2.8808
    -2.8662  -2.8600  -2.8291  -2.8148  -2.7796  -2.6994  -2.6911  -2.6250
    -2.6136  -2.5863  -2.5609  -2.4731  -2.4669  -2.4543  -2.3797  -2.3449
    -2.3359  -2.3155  -2.3136  -2.2917  -2.2813  -2.2691  -2.2554  -2.2517
    -2.2421  -2.2398  -2.2335  -2.2328  -2.2177  -2.2163  -2.1948  -2.1851
    -2.1831  -2.1653  -2.1501  -2.1397  -2.1144  -2.1130  -2.0999  -2.0468
    -1.9796  -1.9404  -1.9131  -1.8916  -1.8743  -1.8557  -1.8487  -1.8454
    -1.8394  -1.8341  -1.8191  -1.8118  -1.8024  -1.7690  -1.7661  -1.7269
    -1.7097  -1.7005  -1.6828  -1.6649  -1.6484  -1.6209  -1.6208  -1.6019
    -1.5946  -1.5584  -1.5344  -1.4922  -1.4848  -1.4694  -1.4517  -1.4324
    -1.4169  -1.3649  -1.3166  -1.2889  -1.2718  -1.2247  -1.2103  -1.2007
    -1.1827  -1.0851  -1.0505  -0.9680  -0.9482  -0.9462  -0.9215  -0.9179
    -0.8978  -0.8918  -0.8783  -0.8474  -0.8158  -0.8098  -0.7988  -0.7838
    -0.7664  -0.7658  -0.7482  -0.7282  -0.7194  -0.6883  -0.6849  -0.6461
    -0.6054  -0.5741  -0.5492  -0.5252  -0.5046  -0.4901  -0.4612  -0.4339
    -0.3495  -0.3101  -0.2604   0.2530   0.2632   0.4756   0.4825   0.5967
     1.6977   1.7301   1.7402   1.7441   1.7627   1.7939   1.8139   1.8201
     1.8364   1.8424   1.8598   1.8648   1.8703   1.8803   1.8886   1.9216
     1.9378   1.9665   1.9875   2.0054   2.0068   2.0391   2.0726   2.1568
     2.1991   2.2159   2.2605   2.2753   2.3100   2.3211   2.3456   2.3479
     2.3634   2.3794   2.3903   2.3939   2.4089   2.4096   2.4234   2.4262
     2.4397   2.4461   2.4568   2.4693   2.4741   2.4742   2.4791   2.4861
     2.5339   2.5512   2.5535   2.5768   2.5815   2.5909   2.5981   2.6025
     2.6057   2.6093   2.6147   2.6200   2.6365   2.6413   2.6689   2.6772
     2.6900   2.7530   2.7570   2.7770   2.7917   2.7941   2.8105   2.8130
     2.8309   2.8340   2.8490   2.8506   2.8669   2.8684   2.8817   2.8993
     2.9101   2.9154   2.9793   2.9982   3.0039   3.0354   3.0371   3.0466
     3.0634

     the Fermi energy is     0.3185 ev

     Writing output data file v.save/
 
     init_run     :      4.06s CPU      4.16s WALL (       1 calls)
     electrons    :   2937.13s CPU   2952.80s WALL (       1 calls)

     Called by init_run:
     wfcinit      :      0.00s CPU      0.00s WALL (       1 calls)
     potinit      :      2.28s CPU      2.31s WALL (       1 calls)
     hinit0       :      1.30s CPU      1.32s WALL (       1 calls)

     Called by electrons:
     c_bands      :   2937.12s CPU   2952.80s WALL (       1 calls)
     v_of_rho     :      0.23s CPU      0.24s WALL (       1 calls)
     newd         :      0.17s CPU      0.21s WALL (       1 calls)
     PAW_pot      :      2.03s CPU      2.03s WALL (       1 calls)

     Called by c_bands:
     init_us_2    :      0.33s CPU      0.35s WALL (      10 calls)
     cegterg      :   2844.69s CPU   2858.97s WALL (      37 calls)

     Called by sum_band:

     Called by *egterg:
     h_psi        :    895.97s CPU    898.45s WALL (     701 calls)
     s_psi        :    175.26s CPU    175.31s WALL (     701 calls)
     g_psi        :      2.47s CPU      2.47s WALL (     654 calls)
     cdiaghg      :    999.54s CPU   1008.50s WALL (     664 calls)

     Called by h_psi:
     h_psi:pot    :    892.57s CPU    894.00s WALL (     701 calls)
     h_psi:calbec :    178.04s CPU    178.35s WALL (     701 calls)
     vloc_psi     :    537.99s CPU    538.94s WALL (     701 calls)
     add_vuspsi   :    176.54s CPU    176.71s WALL (     701 calls)

     General routines
     calbec       :    178.03s CPU    178.35s WALL (     701 calls)
     fft          :      0.12s CPU      0.15s WALL (      13 calls)
     fftw         :    479.18s CPU    479.07s WALL (  238364 calls)
     davcio       :      0.00s CPU      1.13s WALL (      20 calls)
 
     Parallel routines
     fft_scatt_xy :     66.40s CPU     66.74s WALL (  238377 calls)
     fft_scatt_yz :    231.24s CPU    231.18s WALL (  238377 calls)
 
     PWSCF        : 49m11.13s CPU    49m56.33s WALL

 
   This run was terminated on:  19:26:14  18Jan2019            

=------------------------------------------------------------------------------=
   JOB DONE.
=------------------------------------------------------------------------------=
