
     Program PWSCF v.6.3 starts on 16Jan2019 at 17:35:56 

     This program is part of the open-source Quantum ESPRESSO suite
     for quantum simulation of materials; please cite
         "P. Giannozzi et al., J. Phys.:Condens. Matter 21 395502 (2009);
         "P. Giannozzi et al., J. Phys.:Condens. Matter 29 465901 (2017);
          URL http://www.quantum-espresso.org", 
     in publications or presentations arising from this work. More details at
     http://www.quantum-espresso.org/quote

     Parallel version (MPI), running on    40 processors

     MPI processes distributed on     2 nodes
     R & G space division:  proc/nbgrp/npool/nimage =      40
     Reading input from /scratch/beachk2/Korea/W-V-Se/noSOC/Wvac/relax.in
Warning: card &CELL ignored
Warning: card PRESS=0 ignored
Warning: card CELL_DOFREE='ALL' ignored
Warning: card PRESS_CONV_THR=0.1 ignored
Warning: card / ignored

     Current dimensions of program PWSCF are:
     Max number of different atomic species (ntypx) = 10
     Max number of k-points (npk) =  40000
     Max angular momentum in pseudopotentials (lmaxx) =  3
     Message from routine read_upf::
     Pseudo file /scratch/beachk2/Korea/W-V-Se/W.pbesol-spn-kjpaw_psl.0.2.3.UPF has been successfully fixed on the fly.
To avoid this message in the future you can permanently fix 
 your pseudo files following instructions given in: 
https://gitlab.com/QEF/q-e/blob/master/upftools/how_to_fix_upf.md
               file W.pbesol-spn-kjpaw_psl.0.2.3.UPF: wavefunction(s)  5D renormalized
     Message from routine read_upf::
     Pseudo file /scratch/beachk2/Korea/W-V-Se/Se.pbesol-n-kjpaw_psl.0.2.UPF has been successfully fixed on the fly.
To avoid this message in the future you can permanently fix 
 your pseudo files following instructions given in: 
https://gitlab.com/QEF/q-e/blob/master/upftools/how_to_fix_upf.md
               file Se.pbesol-n-kjpaw_psl.0.2.UPF: wavefunction(s)  4S renormalized

     Subspace diagonalization in iterative solution of the eigenvalue problem:
     one sub-group per band group will be used
     scalapack distributed-memory algorithm (size of sub-group:  4*  4 procs)

 
     Parallelization info
     --------------------
     sticks:   dense  smooth     PW     G-vecs:    dense   smooth      PW
     Min         285     285     73                25086    25086    3301
     Max         286     286     74                25092    25092    3304
     Sum       11425   11425   2941              1003523  1003523  132103
 


     bravais-lattice index     =            0
     lattice parameter (alat)  =      37.1609  a.u.
     unit-cell volume          =   45199.1818 (a.u.)^3
     number of atoms/cell      =          107
     number of atomic types    =            2
     number of electrons       =       922.00
     number of Kohn-Sham states=          553
     kinetic-energy cutoff     =      30.0000  Ry
     charge density cutoff     =     120.0000  Ry
     convergence threshold     =      1.0E-07
     mixing beta               =       0.2000
     number of iterations used =            8  plain     mixing
     Exchange-correlation      = SLA PW PSX PSC ( 1  4 10  8 0 0)
     nstep                     =           50


     celldm(1)=  37.160864  celldm(2)=   0.000000  celldm(3)=   0.000000
     celldm(4)=   0.000000  celldm(5)=   0.000000  celldm(6)=   0.000000

     crystal axes: (cart. coord. in units of alat)
               a(1) = (   1.000000   0.000000   0.000000 )  
               a(2) = (  -0.500000   0.866025   0.000000 )  
               a(3) = (   0.000000   0.000000   1.017051 )  

     reciprocal axes: (cart. coord. in units 2 pi/alat)
               b(1) = (  1.000000  0.577350  0.000000 )  
               b(2) = (  0.000000  1.154701  0.000000 )  
               b(3) = (  0.000000  0.000000  0.983235 )  


     PseudoPot. # 1 for W  read from file:
     /scratch/beachk2/Korea/W-V-Se/W.pbesol-spn-kjpaw_psl.0.2.3.UPF
     MD5 check sum: 3489c92d351ecbcf2c7b5f80874fc77e
     Pseudo is Projector augmented-wave + core cor, Zval = 14.0
     Generated using "atomic" code by A. Dal Corso v.5.0.99 svn rev. 10869
     Shape of augmentation charge: BESSEL
     Using radial grid of 1273 points,  6 beta functions with: 
                l(1) =   0
                l(2) =   0
                l(3) =   1
                l(4) =   1
                l(5) =   2
                l(6) =   2
     Q(r) pseudized with 0 coefficients 


     PseudoPot. # 2 for Se read from file:
     /scratch/beachk2/Korea/W-V-Se/Se.pbesol-n-kjpaw_psl.0.2.UPF
     MD5 check sum: de07b397db81a61c301b7fc26c6d7f40
     Pseudo is Projector augmented-wave + core cor, Zval =  6.0
     Generated using "atomic" code by A. Dal Corso v.5.0.99 svn rev. 10869
     Shape of augmentation charge: PSQ
     Using radial grid of 1211 points,  4 beta functions with: 
                l(1) =   0
                l(2) =   0
                l(3) =   1
                l(4) =   1
     Q(r) pseudized with 0 coefficients 


     atomic species   valence    mass     pseudopotential
        W             14.00   183.84000     W ( 1.00)
        Se             6.00    78.96000     Se( 1.00)

     No symmetry found



   Cartesian axes

     site n.     atom                  positions (alat units)
         1           W   tau(   1) = (  -0.1662534   0.3853464   0.3681727  )
         2           W   tau(   2) = (   0.0000427   0.3853264   0.3681727  )
         3           W   tau(   3) = (   0.1668262   0.3853462   0.3681728  )
         4           W   tau(   4) = (   0.3335467   0.3852716   0.3681726  )
         5           W   tau(   5) = (  -0.2498659   0.5301090   0.3681729  )
         6           W   tau(   6) = (  -0.0832799   0.5296735   0.3681726  )
         7           W   tau(   7) = (   0.0835371   0.5296194   0.3681726  )
         8           W   tau(   8) = (   0.2502110   0.5296036   0.3681726  )
         9           W   tau(   9) = (   0.4996999   0.3853718   0.3681727  )
        10           W   tau(  10) = (   0.4168026   0.5296943   0.3681724  )
        11           W   tau(  11) = (   0.5832382   0.5300664   0.3681728  )
        12           W   tau(  12) = (  -0.3331900   0.6739829   0.3681726  )
        13           W   tau(  13) = (  -0.1665359   0.6739847   0.3681728  )
        14           W   tau(  14) = (   0.0003006   0.6739525   0.3681727  )
        15           W   tau(  15) = (   0.1670230   0.6739049   0.3681724  )
        16           W   tau(  16) = (  -0.4165657   0.8183948   0.3681729  )
        17           W   tau(  17) = (  -0.2498371   0.8183719   0.3681730  )
        18           W   tau(  18) = (  -0.0830886   0.8183066   0.3681728  )
        19           W   tau(  19) = (   0.0836212   0.8182674   0.3681726  )
        20           W   tau(  20) = (   0.0000546   0.0967208   0.3681726  )
        21           W   tau(  21) = (   0.1667474   0.0967139   0.3681725  )
        22           W   tau(  22) = (   0.3334808   0.0966569   0.3681728  )
        23           W   tau(  23) = (   0.5001760   0.0967097   0.3681726  )
        24           W   tau(  24) = (  -0.0833875   0.2411294   0.3681724  )
        25           W   tau(  25) = (   0.0833955   0.2410715   0.3681726  )
        26           W   tau(  26) = (   0.2500962   0.2410383   0.3681727  )
        27           W   tau(  27) = (   0.4168493   0.2410378   0.3681725  )
        28           W   tau(  28) = (   0.3335855   0.6740123   0.3681725  )
        29           W   tau(  29) = (   0.5002500   0.6740082   0.3681726  )
        30           W   tau(  30) = (   0.2502342   0.8183495   0.3681725  )
        31           W   tau(  31) = (   0.4168246   0.8183551   0.3681725  )
        32           W   tau(  32) = (   0.6667797   0.0967645   0.3681724  )
        33           W   tau(  33) = (   0.8334491   0.0967787   0.3681725  )
        34           W   tau(  34) = (   0.5831126   0.2408143   0.3681726  )
        35           W   tau(  35) = (   0.7502824   0.2407840   0.3681726  )
        36           Se  tau(  36) = (  -0.0833745   0.3372793   0.2828996  )
        37           Se  tau(  37) = (   0.0834154   0.3373098   0.2830556  )
        38           Se  tau(  38) = (   0.2501920   0.3372666   0.2830451  )
        39           Se  tau(  39) = (   0.4168967   0.3371838   0.2828837  )
        40           Se  tau(  40) = (  -0.1668268   0.4815438   0.2831333  )
        41           Se  tau(  41) = (   0.0000796   0.4816000   0.2830672  )
        42           Se  tau(  42) = (   0.1668581   0.4815528   0.2830395  )
        43           Se  tau(  43) = (   0.3335367   0.4815273   0.2830297  )
        44           Se  tau(  44) = (  -0.0833746   0.3372792   0.4534448  )
        45           Se  tau(  45) = (   0.0834153   0.3373098   0.4532891  )
        46           Se  tau(  46) = (   0.2501921   0.3372667   0.4532996  )
        47           Se  tau(  47) = (   0.4168968   0.3371838   0.4534607  )
        48           Se  tau(  48) = (  -0.1668265   0.4815439   0.4532116  )
        49           Se  tau(  49) = (   0.0000796   0.4816002   0.4532775  )
        50           Se  tau(  50) = (   0.1668581   0.4815529   0.4533052  )
        51           Se  tau(  51) = (   0.3335368   0.4815275   0.4533147  )
        52           Se  tau(  52) = (   0.5851259   0.3383477   0.2847469  )
        53           Se  tau(  53) = (   0.7482544   0.3383305   0.2847699  )
        54           Se  tau(  54) = (   0.5002054   0.4815426   0.2830943  )
        55           Se  tau(  55) = (   0.6666752   0.4795959   0.2847475  )
        56           Se  tau(  56) = (   0.5851218   0.3383453   0.4516043  )
        57           Se  tau(  57) = (   0.7482585   0.3383280   0.4515813  )
        58           Se  tau(  58) = (   0.5002051   0.4815427   0.4532505  )
        59           Se  tau(  59) = (   0.6666752   0.4796005   0.4516039  )
        60           Se  tau(  60) = (  -0.2499325   0.6259059   0.2828923  )
        61           Se  tau(  61) = (  -0.0831048   0.6258678   0.2830659  )
        62           Se  tau(  62) = (   0.0836683   0.6258257   0.2830574  )
        63           Se  tau(  63) = (   0.2503435   0.6257995   0.2830304  )
        64           Se  tau(  64) = (  -0.3332075   0.7702207   0.2830716  )
        65           Se  tau(  65) = (  -0.1664624   0.7701956   0.2830742  )
        66           Se  tau(  66) = (   0.0003040   0.7701603   0.2830683  )
        67           Se  tau(  67) = (   0.1669833   0.7701316   0.2830572  )
        68           Se  tau(  68) = (   0.0833788   0.0486021   0.2830659  )
        69           Se  tau(  69) = (   0.2501261   0.0485747   0.2830742  )
        70           Se  tau(  70) = (   0.4168909   0.0485408   0.2830746  )
        71           Se  tau(  71) = (   0.5835615   0.0485152   0.2830651  )
        72           Se  tau(  72) = (  -0.0000397   0.1930089   0.2830744  )
        73           Se  tau(  73) = (   0.1667289   0.1929690   0.2830660  )
        74           Se  tau(  74) = (   0.3334956   0.1929339   0.2830724  )
        75           Se  tau(  75) = (   0.5001152   0.1929732   0.2828929  )
        76           Se  tau(  76) = (  -0.2499326   0.6259059   0.4534525  )
        77           Se  tau(  77) = (  -0.0831047   0.6258677   0.4532789  )
        78           Se  tau(  78) = (   0.0836685   0.6258258   0.4532871  )
        79           Se  tau(  79) = (   0.2503435   0.6257996   0.4533140  )
        80           Se  tau(  80) = (  -0.3332076   0.7702205   0.4532735  )
        81           Se  tau(  81) = (  -0.1664622   0.7701954   0.4532709  )
        82           Se  tau(  82) = (   0.0003042   0.7701604   0.4532765  )
        83           Se  tau(  83) = (   0.1669834   0.7701316   0.4532872  )
        84           Se  tau(  84) = (   0.0833787   0.0486024   0.4532790  )
        85           Se  tau(  85) = (   0.2501261   0.0485750   0.4532709  )
        86           Se  tau(  86) = (   0.4168911   0.0485408   0.4532703  )
        87           Se  tau(  87) = (   0.5835617   0.0485153   0.4532794  )
        88           Se  tau(  88) = (  -0.0000400   0.1930090   0.4532701  )
        89           Se  tau(  89) = (   0.1667289   0.1929691   0.4532789  )
        90           Se  tau(  90) = (   0.3334958   0.1929341   0.4532724  )
        91           Se  tau(  91) = (   0.5001153   0.1929733   0.4534515  )
        92           Se  tau(  92) = (   0.4168844   0.6258888   0.2830301  )
        93           Se  tau(  93) = (   0.5835696   0.6258691   0.2828829  )
        94           Se  tau(  94) = (   0.3335222   0.7702240   0.2830402  )
        95           Se  tau(  95) = (   0.5001460   0.7701978   0.2830451  )
        96           Se  tau(  96) = (   0.7500921   0.0486101   0.2830666  )
        97           Se  tau(  97) = (   0.9167193   0.0485845   0.2830559  )
        98           Se  tau(  98) = (   0.6666885   0.1931819   0.2831320  )
        99           Se  tau(  99) = (   0.8333503   0.1930434   0.2828993  )
       100           Se  tau( 100) = (   0.4168842   0.6258887   0.4533142  )
       101           Se  tau( 101) = (   0.5835695   0.6258691   0.4534617  )
       102           Se  tau( 102) = (   0.3335221   0.7702241   0.4533041  )
       103           Se  tau( 103) = (   0.5001457   0.7701977   0.4532995  )
       104           Se  tau( 104) = (   0.7500920   0.0486101   0.4532777  )
       105           Se  tau( 105) = (   0.9167191   0.0485845   0.4532886  )
       106           Se  tau( 106) = (   0.6666885   0.1931816   0.4532125  )
       107           Se  tau( 107) = (   0.8333503   0.1930434   0.4534448  )

     number of k points=     4  Marzari-Vanderbilt smearing, width (Ry)=  0.0050
                       cart. coord. in units 2pi/alat
        k(    1) = (   0.0000000   0.0000000   0.0000000), wk =   0.5000000
        k(    2) = (   0.0000000  -0.5773505   0.0000000), wk =   0.5000000
        k(    3) = (   0.5000000  -0.2886753   0.0000000), wk =   0.5000000
        k(    4) = (  -0.5000000  -0.2886752   0.0000000), wk =   0.5000000

     Dense  grid:  1003523 G-vectors     FFT dimensions: ( 135, 135, 135)

     Estimated max dynamical RAM per process >     558.16 MB

     Estimated total dynamical RAM >      21.80 GB

     Check: negative/imaginary core charge=   -0.000012    0.000000

     Initial potential from superposition of free atoms
     Check: negative starting charge=   -0.045889

     starting charge  921.97512, renormalised to  922.00000

     negative rho (up, down):  4.589E-02 0.000E+00
     Starting wfcs are  743 randomized atomic wfcs
     Checking if some PAW data can be deallocated... 

     total cpu time spent up to now is       40.4 secs

     Self-consistent Calculation

     iteration #  1     ecut=    30.00 Ry     beta= 0.20
     Davidson diagonalization with overlap
     ethr =  1.00E-02,  avg # of iterations =  2.0

     Threshold (ethr) on eigenvalues was too large:
     Diagonalizing with lowered threshold

     Davidson diagonalization with overlap
     ethr =  2.97E-04,  avg # of iterations =  2.8

     negative rho (up, down):  4.691E-02 0.000E+00

     total cpu time spent up to now is      215.6 secs

     total energy              =  -39671.86137050 Ry
     Harris-Foulkes estimate   =  -39672.56338378 Ry
     estimated scf accuracy    <       2.84385505 Ry

     iteration #  2     ecut=    30.00 Ry     beta= 0.20
     Davidson diagonalization with overlap
     ethr =  3.08E-04,  avg # of iterations =  1.2

     negative rho (up, down):  4.822E-02 0.000E+00

     total cpu time spent up to now is      286.2 secs

     total energy              =  -39671.66573113 Ry
     Harris-Foulkes estimate   =  -39672.00087338 Ry
     estimated scf accuracy    <       1.07829430 Ry

     iteration #  3     ecut=    30.00 Ry     beta= 0.20
     Davidson diagonalization with overlap
     ethr =  1.17E-04,  avg # of iterations =  2.8

     negative rho (up, down):  4.880E-02 0.000E+00

     total cpu time spent up to now is      376.6 secs

     total energy              =  -39671.69997057 Ry
     Harris-Foulkes estimate   =  -39671.77116853 Ry
     estimated scf accuracy    <       0.32163697 Ry

     iteration #  4     ecut=    30.00 Ry     beta= 0.20
     Davidson diagonalization with overlap
     c_bands:  2 eigenvalues not converged
     c_bands:  2 eigenvalues not converged
     ethr =  3.49E-05,  avg # of iterations = 18.8

     negative rho (up, down):  4.915E-02 0.000E+00

     total cpu time spent up to now is      544.1 secs

     total energy              =  -39671.70969155 Ry
     Harris-Foulkes estimate   =  -39671.73683607 Ry
     estimated scf accuracy    <       0.16419315 Ry

     iteration #  5     ecut=    30.00 Ry     beta= 0.20
     Davidson diagonalization with overlap
     c_bands:  1 eigenvalues not converged
     ethr =  1.78E-05,  avg # of iterations = 10.0

     negative rho (up, down):  4.935E-02 0.000E+00

     total cpu time spent up to now is      653.1 secs

     total energy              =  -39671.71471120 Ry
     Harris-Foulkes estimate   =  -39671.72198331 Ry
     estimated scf accuracy    <       0.04686205 Ry

     iteration #  6     ecut=    30.00 Ry     beta= 0.20
     Davidson diagonalization with overlap
     c_bands:  5 eigenvalues not converged
     c_bands:  4 eigenvalues not converged
     ethr =  5.08E-06,  avg # of iterations = 22.8

     negative rho (up, down):  4.944E-02 0.000E+00

     total cpu time spent up to now is      851.6 secs

     total energy              =  -39671.71156443 Ry
     Harris-Foulkes estimate   =  -39671.71948785 Ry
     estimated scf accuracy    <       0.04894963 Ry

     iteration #  7     ecut=    30.00 Ry     beta= 0.20
     Davidson diagonalization with overlap
     ethr =  5.08E-06,  avg # of iterations =  5.2

     negative rho (up, down):  4.946E-02 0.000E+00

     total cpu time spent up to now is      939.6 secs

     total energy              =  -39671.71268809 Ry
     Harris-Foulkes estimate   =  -39671.71614963 Ry
     estimated scf accuracy    <       0.02121204 Ry

     iteration #  8     ecut=    30.00 Ry     beta= 0.20
     Davidson diagonalization with overlap
     c_bands:  2 eigenvalues not converged
     ethr =  2.30E-06,  avg # of iterations =  8.2

     negative rho (up, down):  4.945E-02 0.000E+00

     total cpu time spent up to now is     1041.0 secs

     total energy              =  -39671.71369063 Ry
     Harris-Foulkes estimate   =  -39671.71503667 Ry
     estimated scf accuracy    <       0.01238028 Ry

     iteration #  9     ecut=    30.00 Ry     beta= 0.20
     Davidson diagonalization with overlap
     ethr =  1.34E-06,  avg # of iterations =  2.8

     negative rho (up, down):  4.942E-02 0.000E+00

     total cpu time spent up to now is     1118.0 secs

     total energy              =  -39671.71430678 Ry
     Harris-Foulkes estimate   =  -39671.71446884 Ry
     estimated scf accuracy    <       0.00092497 Ry

     iteration # 10     ecut=    30.00 Ry     beta= 0.20
     Davidson diagonalization with overlap
     ethr =  1.00E-07,  avg # of iterations =  2.2

     negative rho (up, down):  4.939E-02 0.000E+00

     total cpu time spent up to now is     1199.4 secs

     total energy              =  -39671.71435727 Ry
     Harris-Foulkes estimate   =  -39671.71442241 Ry
     estimated scf accuracy    <       0.00033169 Ry

     iteration # 11     ecut=    30.00 Ry     beta= 0.20
     Davidson diagonalization with overlap
     ethr =  3.60E-08,  avg # of iterations =  2.8

     negative rho (up, down):  4.938E-02 0.000E+00

     total cpu time spent up to now is     1278.8 secs

     total energy              =  -39671.71434900 Ry
     Harris-Foulkes estimate   =  -39671.71438842 Ry
     estimated scf accuracy    <       0.00017233 Ry

     iteration # 12     ecut=    30.00 Ry     beta= 0.20
     Davidson diagonalization with overlap
     ethr =  1.87E-08,  avg # of iterations =  2.2

     negative rho (up, down):  4.936E-02 0.000E+00

     total cpu time spent up to now is     1355.4 secs

     total energy              =  -39671.71434985 Ry
     Harris-Foulkes estimate   =  -39671.71437998 Ry
     estimated scf accuracy    <       0.00020382 Ry

     iteration # 13     ecut=    30.00 Ry     beta= 0.20
     Davidson diagonalization with overlap
     ethr =  1.87E-08,  avg # of iterations =  2.0

     negative rho (up, down):  4.934E-02 0.000E+00

     total cpu time spent up to now is     1429.6 secs

     total energy              =  -39671.71436274 Ry
     Harris-Foulkes estimate   =  -39671.71436821 Ry
     estimated scf accuracy    <       0.00004315 Ry

     iteration # 14     ecut=    30.00 Ry     beta= 0.20
     Davidson diagonalization with overlap
     ethr =  4.68E-09,  avg # of iterations =  2.0

     negative rho (up, down):  4.933E-02 0.000E+00

     total cpu time spent up to now is     1503.6 secs

     total energy              =  -39671.71436529 Ry
     Harris-Foulkes estimate   =  -39671.71436637 Ry
     estimated scf accuracy    <       0.00000671 Ry

     iteration # 15     ecut=    30.00 Ry     beta= 0.20
     Davidson diagonalization with overlap
     ethr =  7.27E-10,  avg # of iterations =  2.8

     negative rho (up, down):  4.932E-02 0.000E+00

     total cpu time spent up to now is     1585.7 secs

     total energy              =  -39671.71436590 Ry
     Harris-Foulkes estimate   =  -39671.71436647 Ry
     estimated scf accuracy    <       0.00000438 Ry

     iteration # 16     ecut=    30.00 Ry     beta= 0.20
     Davidson diagonalization with overlap
     ethr =  4.75E-10,  avg # of iterations =  2.0

     negative rho (up, down):  4.932E-02 0.000E+00

     total cpu time spent up to now is     1660.1 secs

     total energy              =  -39671.71436619 Ry
     Harris-Foulkes estimate   =  -39671.71436637 Ry
     estimated scf accuracy    <       0.00000144 Ry

     iteration # 17     ecut=    30.00 Ry     beta= 0.20
     Davidson diagonalization with overlap
     ethr =  1.56E-10,  avg # of iterations =  2.0

     negative rho (up, down):  4.931E-02 0.000E+00

     total cpu time spent up to now is     1734.4 secs

     total energy              =  -39671.71436622 Ry
     Harris-Foulkes estimate   =  -39671.71436636 Ry
     estimated scf accuracy    <       0.00000115 Ry

     iteration # 18     ecut=    30.00 Ry     beta= 0.20
     Davidson diagonalization with overlap
     ethr =  1.24E-10,  avg # of iterations =  2.0

     negative rho (up, down):  4.931E-02 0.000E+00

     total cpu time spent up to now is     1808.7 secs

     total energy              =  -39671.71436623 Ry
     Harris-Foulkes estimate   =  -39671.71436632 Ry
     estimated scf accuracy    <       0.00000076 Ry

     iteration # 19     ecut=    30.00 Ry     beta= 0.20
     Davidson diagonalization with overlap
     ethr =  8.24E-11,  avg # of iterations =  2.0

     negative rho (up, down):  4.931E-02 0.000E+00

     total cpu time spent up to now is     1883.3 secs

     total energy              =  -39671.71436620 Ry
     Harris-Foulkes estimate   =  -39671.71436631 Ry
     estimated scf accuracy    <       0.00000055 Ry

     iteration # 20     ecut=    30.00 Ry     beta= 0.20
     Davidson diagonalization with overlap
     ethr =  5.99E-11,  avg # of iterations =  2.0

     negative rho (up, down):  4.930E-02 0.000E+00

     total cpu time spent up to now is     1957.0 secs

     End of self-consistent calculation

          k = 0.0000 0.0000 0.0000 (125381 PWs)   bands (ev):

   -74.2485 -74.2474 -74.2469 -74.2447 -74.2444 -74.2431 -74.1429 -74.1429
   -74.1425 -74.1159 -74.1125 -74.1125 -74.1120 -74.1096 -74.1095 -74.1090
   -74.1089 -74.1087 -74.1076 -74.1064 -74.1061 -74.1058 -74.1057 -74.1051
   -74.1047 -74.1036 -74.0999 -74.0988 -74.0987 -74.0781 -74.0779 -74.0773
   -74.0772 -74.0770 -74.0769 -38.6006 -38.5898 -38.5894 -38.5307 -38.5300
   -38.5220 -38.4642 -38.4541 -38.4538 -38.4419 -38.4401 -38.4361 -38.4359
   -38.4341 -38.4341 -38.4268 -38.4267 -38.4243 -38.4241 -38.4235 -38.4222
   -38.4212 -38.4211 -38.4180 -38.4044 -38.4043 -38.4007 -38.3946 -38.3946
   -38.3927 -38.3872 -38.3871 -38.3800 -38.3800 -38.3696 -38.3638 -38.3636
   -38.3597 -38.3571 -38.3568 -38.3531 -38.3527 -38.3419 -38.3413 -38.3411
   -38.3379 -38.3378 -38.3319 -38.3318 -38.3281 -38.3275 -38.3275 -38.3273
   -38.3256 -38.3256 -38.3248 -38.3193 -38.3192 -38.3182 -38.3176 -38.3147
   -38.3147 -38.3135 -38.3130 -38.3086 -38.3083 -38.3070 -38.3057 -38.3054
   -38.2996 -38.2996 -38.2985 -38.2921 -38.2879 -38.2879 -38.2878 -38.2874
   -38.2873 -38.2866 -38.2864 -38.2852 -38.2830 -38.2797 -38.2796 -38.2793
   -38.2680 -38.2656 -38.2653 -38.2637 -38.2633 -38.2626 -38.2589 -38.2560
   -38.2558 -38.2551 -38.2525 -38.2521 -38.2380 -38.2376 -38.2287 -38.2281
   -38.2267 -38.2195 -38.2126 -38.2122 -14.9412 -14.5601 -14.5592 -14.5574
   -14.5350 -14.5344 -14.3538 -13.8573 -13.8572 -13.8341 -13.7908 -13.7908
   -13.7191 -13.6667 -13.5671 -13.5670 -13.5670 -13.4812 -13.4806 -13.4805
   -13.4799 -13.4776 -13.4587 -13.4578 -13.3575 -13.3075 -13.1382 -13.1380
   -13.1164 -13.0868 -13.0867 -13.0593 -12.9982 -12.9982 -12.9971 -12.9575
   -12.9568 -12.9433 -12.9393 -12.9393 -12.9366 -12.9352 -12.9349 -12.9335
   -12.9333 -12.9303 -12.9160 -12.9131 -12.9123 -12.8419 -12.7064 -12.7061
   -12.6969 -12.6912 -12.6911 -12.6891 -12.6884 -12.6877 -12.6848 -12.6838
   -12.6835 -12.6800 -12.6712 -12.6712 -12.5968 -12.5381 -12.5381 -12.3764
   -12.2442 -12.2442 -11.8449 -11.8444  -6.5157  -6.5156  -6.4837  -6.3682
    -5.9661  -5.9614  -5.9602  -5.9600  -5.9563  -5.9560  -5.9384  -5.9379
    -5.9326  -5.8870  -5.8862  -5.8848  -5.8660  -5.8655  -5.8495  -5.8491
    -5.7712  -5.7079  -5.6187  -5.6185  -5.5813  -5.5454  -5.5453  -5.5193
    -5.5189  -5.5023  -5.3970  -5.2844  -5.2839  -5.2703  -5.1845  -5.1734
    -5.1730  -5.1715  -5.1697  -5.1693  -5.1625  -5.1554  -5.1517  -5.1517
    -5.1486  -5.1469  -5.1463  -5.0413  -5.0413  -5.0274  -4.9702  -4.9189
    -4.9189  -4.6412  -4.6384  -4.6383  -4.5959  -4.5854  -4.5853  -4.5609
    -4.5609  -4.5307  -4.5222  -4.5217  -4.4834  -4.4768  -4.4767  -4.4384
    -4.4371  -4.4360  -4.4197  -4.4190  -4.3457  -4.3200  -4.3195  -4.3068
    -4.2459  -4.2455  -4.2387  -4.2282  -4.2278  -4.2236  -4.2235  -4.2109
    -4.0727  -3.9536  -3.9535  -3.8587  -3.8005  -3.7895  -3.7893  -3.7691
    -3.7684  -3.6870  -3.6158  -3.6149  -3.5214  -3.5212  -3.5150  -3.4534
    -3.4520  -3.4515  -3.4505  -3.4440  -3.4433  -3.4423  -3.4403  -3.4341
    -3.4338  -3.3881  -3.3871  -3.3572  -3.3217  -3.3027  -3.2898  -3.2896
    -3.2514  -3.2509  -3.2501  -3.2416  -3.2053  -3.2047  -3.1008  -3.1002
    -3.0978  -3.0748  -3.0734  -3.0499  -2.9538  -2.8994  -2.8991  -2.7944
    -2.7940  -2.7904  -2.7797  -2.7784  -2.7558  -2.7360  -2.7359  -2.7359
    -2.7352  -2.7337  -2.6859  -2.6816  -2.6192  -2.6180  -2.6074  -2.4983
    -2.4983  -2.3834  -2.3828  -2.3497  -2.3481  -2.3118  -2.2645  -2.2412
    -2.2399  -2.1154  -2.1152  -2.1120  -2.1070  -2.1063  -2.1057  -2.0941
    -2.0927  -2.0885  -2.0876  -2.0872  -2.0868  -2.0861  -2.0779  -2.0688
    -2.0673  -2.0668  -2.0611  -2.0571  -2.0515  -2.0377  -2.0216  -2.0001
    -1.9989  -1.9966  -1.8869  -1.8719  -1.8632  -1.8626  -1.8472  -1.8293
    -1.8286  -1.7439  -1.7424  -1.4384  -1.4380  -1.4089  -1.4012  -1.4004
    -1.3947  -1.3606  -1.3603  -1.3489  -1.3482  -1.3476  -1.3475  -1.3263
    -1.3259  -1.3067  -1.3066  -1.2652  -1.2613  -1.2415  -1.2403  -1.2192
    -1.2185  -1.1936  -1.1208  -1.1202  -1.0734  -1.0336  -1.0331  -0.9042
    -0.8933  -0.8927  -0.8825  -0.8820  -0.8533  -0.8375  -0.7881  -0.7841
    -0.7839  -0.6858  -0.6801  -0.6784  -0.6633  -0.6618  -0.6142  -0.6115
    -0.6109  -0.6069  -0.6058  -0.6055  -0.5809  -0.5634  -0.5634  -0.5514
    -0.4986  -0.1822  -0.1819   0.3298   0.3298   0.4708   0.5289   0.5306
     1.5838   1.5925   1.6086   1.6086   1.6219   1.6687   1.6689   1.6959
     2.0292   2.0319   2.0329   2.0531   2.0538   2.0596   2.0660   2.0791
     2.0796   2.0918   2.0919   2.0998   2.1008   2.1213   2.1219   2.1236
     2.1305   2.1339   2.1339   2.1672   2.1674   2.2172   2.2178   2.2577
     2.2903   2.2909   2.2982   2.3411   2.3421   2.3691   2.3922   2.4184
     2.4187   2.4315   2.4474   2.4477   2.4897   2.5003   2.5009   2.5065
     2.5080   2.5086   2.5142   2.5447   2.5453   2.5637   2.5638   2.5743
     2.6568   2.6655   2.6659   2.6679   2.6808   2.6813   2.6843   2.7359
     2.7370   2.7506   2.7514   2.7563   2.7746   2.7766   2.7769   2.7775
     2.7841   2.7842   2.7883   2.7884   2.7891   2.7896   2.8101   2.9812
     2.9818   3.1330   3.1385   3.1400   3.1418   3.1452   3.1490   3.1492
     3.1494

          k = 0.0000-0.5774 0.0000 (125440 PWs)   bands (ev):

   -74.2485 -74.2474 -74.2469 -74.2447 -74.2444 -74.2431 -74.1429 -74.1429
   -74.1425 -74.1159 -74.1126 -74.1125 -74.1119 -74.1096 -74.1095 -74.1092
   -74.1090 -74.1086 -74.1077 -74.1064 -74.1061 -74.1058 -74.1057 -74.1051
   -74.1047 -74.1036 -74.0999 -74.0988 -74.0988 -74.0781 -74.0779 -74.0773
   -74.0772 -74.0771 -74.0769 -38.6005 -38.5897 -38.5893 -38.5313 -38.5306
   -38.5215 -38.4615 -38.4529 -38.4495 -38.4419 -38.4416 -38.4381 -38.4363
   -38.4361 -38.4359 -38.4298 -38.4265 -38.4261 -38.4243 -38.4240 -38.4199
   -38.4186 -38.4181 -38.4179 -38.4128 -38.4070 -38.4015 -38.4014 -38.4008
   -38.3930 -38.3845 -38.3794 -38.3727 -38.3702 -38.3649 -38.3604 -38.3594
   -38.3594 -38.3586 -38.3573 -38.3569 -38.3530 -38.3429 -38.3411 -38.3411
   -38.3391 -38.3365 -38.3322 -38.3319 -38.3296 -38.3286 -38.3273 -38.3259
   -38.3240 -38.3231 -38.3210 -38.3193 -38.3192 -38.3170 -38.3163 -38.3150
   -38.3150 -38.3149 -38.3146 -38.3131 -38.3118 -38.3115 -38.3087 -38.3080
   -38.3073 -38.3010 -38.2989 -38.2923 -38.2879 -38.2877 -38.2874 -38.2873
   -38.2864 -38.2859 -38.2857 -38.2848 -38.2841 -38.2789 -38.2778 -38.2755
   -38.2746 -38.2724 -38.2704 -38.2678 -38.2626 -38.2611 -38.2576 -38.2552
   -38.2519 -38.2506 -38.2455 -38.2402 -38.2385 -38.2335 -38.2330 -38.2262
   -38.2244 -38.2235 -38.2183 -38.2139 -14.8603 -14.8130 -14.6474 -14.5878
   -14.2787 -14.2535 -14.2433 -14.1787 -14.0799 -13.9870 -13.7687 -13.7660
   -13.7092 -13.6279 -13.6275 -13.6013 -13.5194 -13.4858 -13.3600 -13.3428
   -13.3348 -13.3330 -13.3230 -13.3124 -13.2916 -13.2838 -13.2674 -13.2424
   -13.2222 -13.1828 -13.1783 -13.1480 -13.0930 -13.0896 -13.0881 -13.0498
   -13.0071 -12.9524 -12.9421 -12.9378 -12.9209 -12.9160 -12.8926 -12.8796
   -12.8734 -12.8549 -12.8531 -12.8249 -12.8121 -12.7953 -12.7896 -12.7786
   -12.7541 -12.7514 -12.7213 -12.6998 -12.6936 -12.6899 -12.6879 -12.6853
   -12.6776 -12.6275 -12.5915 -12.5872 -12.5762 -12.5715 -12.5614 -12.3752
   -12.2466 -12.2437 -11.8448 -11.8443  -6.3728  -6.3704  -6.3265  -6.2896
    -6.2692  -6.2595  -6.2360  -6.2005  -6.1374  -6.0526  -6.0001  -5.9343
    -5.8886  -5.8820  -5.8540  -5.8415  -5.7169  -5.6939  -5.6855  -5.6755
    -5.6278  -5.5563  -5.5380  -5.5344  -5.5281  -5.4745  -5.4646  -5.4589
    -5.4515  -5.4444  -5.4316  -5.4266  -5.4156  -5.3965  -5.3535  -5.3404
    -5.3266  -5.2970  -5.2597  -5.2486  -5.2395  -5.1938  -5.1919  -5.1541
    -5.1332  -5.0837  -5.0761  -5.0758  -5.0357  -4.9517  -4.8383  -4.8186
    -4.7472  -4.7411  -4.6324  -4.6071  -4.5847  -4.5828  -4.5665  -4.5431
    -4.4630  -4.4537  -4.4381  -4.4370  -4.4314  -4.4216  -4.4153  -4.3911
    -4.3798  -4.3762  -4.3738  -4.3522  -4.3179  -4.3054  -4.2877  -4.2785
    -4.2555  -4.2128  -4.2035  -4.1761  -4.1632  -4.1537  -4.1346  -4.1314
    -4.0926  -4.0814  -4.0615  -4.0520  -4.0146  -4.0120  -3.9464  -3.8215
    -3.7804  -3.7541  -3.7442  -3.6687  -3.6349  -3.5711  -3.5527  -3.4950
    -3.4938  -3.4866  -3.4779  -3.4692  -3.4560  -3.4541  -3.4462  -3.4316
    -3.4273  -3.4094  -3.4023  -3.3868  -3.3861  -3.3540  -3.2817  -3.2522
    -3.2485  -3.2294  -3.2111  -3.1962  -3.1827  -3.1692  -3.1572  -3.1385
    -3.1198  -3.1085  -3.0842  -3.0159  -2.9995  -2.9653  -2.9646  -2.9291
    -2.9020  -2.8519  -2.7667  -2.7538  -2.7443  -2.7324  -2.6852  -2.6391
    -2.5664  -2.5537  -2.5320  -2.5268  -2.5037  -2.4734  -2.4661  -2.4634
    -2.4306  -2.3659  -2.3488  -2.3345  -2.3324  -2.3258  -2.3158  -2.3128
    -2.2772  -2.2587  -2.2388  -2.2286  -2.2278  -2.2119  -2.1896  -2.1874
    -2.1458  -2.0689  -2.0646  -2.0588  -2.0203  -2.0168  -1.9960  -1.9891
    -1.9148  -1.9039  -1.8990  -1.8969  -1.8902  -1.8901  -1.8776  -1.8476
    -1.8462  -1.8395  -1.8302  -1.8294  -1.7858  -1.7630  -1.7552  -1.7508
    -1.7332  -1.7298  -1.7298  -1.6853  -1.6658  -1.6627  -1.6560  -1.6427
    -1.6398  -1.6328  -1.5988  -1.5296  -1.5161  -1.4906  -1.4417  -1.3948
    -1.3108  -1.3039  -1.2684  -1.2661  -1.2477  -1.2436  -1.1891  -1.1865
    -1.1641  -1.0565  -1.0133  -1.0099  -0.9889  -0.9827  -0.9647  -0.9226
    -0.9061  -0.8633  -0.8548  -0.8463  -0.8404  -0.8259  -0.8075  -0.8072
    -0.7937  -0.7804  -0.7690  -0.7414  -0.6793  -0.6725  -0.6574  -0.6336
    -0.6114  -0.6100  -0.5984  -0.5552  -0.5144  -0.4909  -0.4712  -0.3931
    -0.3686  -0.3082  -0.3029   0.3365   0.3455   0.4890   0.4941   0.5038
     1.7423   1.7484   1.7621   1.7683   1.7687   1.7773   1.7894   1.7932
     1.8194   1.8208   1.8349   1.8704   1.8761   1.8783   1.8903   1.9078
     1.9249   1.9780   2.0116   2.0321   2.0452   2.0731   2.1067   2.1566
     2.1743   2.1973   2.2220   2.2628   2.3096   2.3367   2.3493   2.3516
     2.3744   2.3769   2.3814   2.3871   2.3991   2.4094   2.4263   2.4387
     2.4391   2.4420   2.4477   2.4553   2.4621   2.4774   2.4788   2.4926
     2.4938   2.5004   2.5342   2.5352   2.5546   2.5698   2.5732   2.5873
     2.6035   2.6151   2.6558   2.6730   2.6989   2.7117   2.7249   2.7265
     2.7345   2.7465   2.7530   2.7616   2.7691   2.7863   2.8052   2.8063
     2.8131   2.8217   2.8228   2.8296   2.8392   2.8392   2.8457   2.8482
     2.8616   2.8849   2.8942   2.9458   2.9926   3.0201   3.0349   3.0520
     3.1416

          k = 0.5000-0.2887 0.0000 (125440 PWs)   bands (ev):

   -74.2485 -74.2474 -74.2469 -74.2447 -74.2444 -74.2431 -74.1429 -74.1429
   -74.1425 -74.1159 -74.1126 -74.1125 -74.1119 -74.1096 -74.1094 -74.1093
   -74.1089 -74.1086 -74.1076 -74.1064 -74.1061 -74.1058 -74.1057 -74.1051
   -74.1048 -74.1036 -74.0999 -74.0988 -74.0987 -74.0781 -74.0779 -74.0773
   -74.0772 -74.0771 -74.0769 -38.6005 -38.5897 -38.5893 -38.5313 -38.5306
   -38.5215 -38.4615 -38.4527 -38.4497 -38.4419 -38.4416 -38.4382 -38.4363
   -38.4361 -38.4359 -38.4297 -38.4265 -38.4261 -38.4243 -38.4241 -38.4200
   -38.4185 -38.4181 -38.4179 -38.4128 -38.4071 -38.4016 -38.4013 -38.4008
   -38.3928 -38.3845 -38.3794 -38.3726 -38.3702 -38.3650 -38.3604 -38.3594
   -38.3592 -38.3586 -38.3572 -38.3571 -38.3530 -38.3429 -38.3412 -38.3410
   -38.3392 -38.3365 -38.3323 -38.3319 -38.3296 -38.3287 -38.3273 -38.3259
   -38.3240 -38.3231 -38.3210 -38.3193 -38.3191 -38.3171 -38.3163 -38.3151
   -38.3150 -38.3148 -38.3146 -38.3131 -38.3118 -38.3115 -38.3084 -38.3083
   -38.3073 -38.3010 -38.2991 -38.2921 -38.2880 -38.2876 -38.2874 -38.2873
   -38.2862 -38.2862 -38.2856 -38.2844 -38.2843 -38.2787 -38.2783 -38.2751
   -38.2751 -38.2724 -38.2711 -38.2679 -38.2622 -38.2602 -38.2577 -38.2553
   -38.2517 -38.2510 -38.2451 -38.2402 -38.2390 -38.2333 -38.2331 -38.2255
   -38.2247 -38.2242 -38.2184 -38.2136 -14.8610 -14.8120 -14.6473 -14.5886
   -14.2787 -14.2535 -14.2433 -14.1782 -14.0796 -13.9872 -13.7686 -13.7667
   -13.7093 -13.6286 -13.6273 -13.6002 -13.5192 -13.4869 -13.3600 -13.3427
   -13.3346 -13.3329 -13.3232 -13.3123 -13.2914 -13.2830 -13.2674 -13.2420
   -13.2222 -13.1831 -13.1784 -13.1476 -13.0928 -13.0894 -13.0893 -13.0501
   -13.0072 -12.9528 -12.9424 -12.9377 -12.9207 -12.9160 -12.8925 -12.8793
   -12.8731 -12.8544 -12.8532 -12.8251 -12.8121 -12.7954 -12.7889 -12.7782
   -12.7541 -12.7519 -12.7213 -12.7006 -12.6932 -12.6898 -12.6883 -12.6857
   -12.6777 -12.6274 -12.5913 -12.5868 -12.5762 -12.5714 -12.5615 -12.3752
   -12.2466 -12.2437 -11.8449 -11.8442  -6.3733  -6.3717  -6.3251  -6.2891
    -6.2697  -6.2599  -6.2353  -6.1994  -6.1375  -6.0523  -5.9999  -5.9347
    -5.8887  -5.8820  -5.8549  -5.8430  -5.7168  -5.6938  -5.6854  -5.6752
    -5.6273  -5.5562  -5.5385  -5.5346  -5.5282  -5.4746  -5.4638  -5.4595
    -5.4522  -5.4445  -5.4309  -5.4257  -5.4148  -5.3959  -5.3536  -5.3405
    -5.3265  -5.2966  -5.2607  -5.2488  -5.2399  -5.1933  -5.1914  -5.1541
    -5.1335  -5.0843  -5.0760  -5.0757  -5.0360  -4.9514  -4.8382  -4.8186
    -4.7479  -4.7410  -4.6318  -4.6068  -4.5847  -4.5832  -4.5671  -4.5432
    -4.4633  -4.4535  -4.4377  -4.4370  -4.4318  -4.4216  -4.4152  -4.3912
    -4.3803  -4.3759  -4.3735  -4.3521  -4.3184  -4.3053  -4.2877  -4.2780
    -4.2552  -4.2131  -4.2037  -4.1762  -4.1633  -4.1534  -4.1349  -4.1316
    -4.0925  -4.0810  -4.0615  -4.0518  -4.0151  -4.0114  -3.9467  -3.8216
    -3.7808  -3.7540  -3.7440  -3.6681  -3.6347  -3.5712  -3.5529  -3.4949
    -3.4933  -3.4868  -3.4768  -3.4723  -3.4564  -3.4542  -3.4462  -3.4324
    -3.4267  -3.4087  -3.4017  -3.3863  -3.3861  -3.3546  -3.2836  -3.2499
    -3.2487  -3.2299  -3.2109  -3.1952  -3.1827  -3.1686  -3.1573  -3.1397
    -3.1211  -3.1081  -3.0830  -3.0148  -3.0007  -2.9648  -2.9641  -2.9279
    -2.9029  -2.8511  -2.7675  -2.7527  -2.7460  -2.7311  -2.6870  -2.6416
    -2.5660  -2.5538  -2.5319  -2.5264  -2.5035  -2.4735  -2.4653  -2.4623
    -2.4313  -2.3649  -2.3486  -2.3338  -2.3328  -2.3260  -2.3154  -2.3118
    -2.2769  -2.2586  -2.2391  -2.2302  -2.2291  -2.2116  -2.1890  -2.1875
    -2.1461  -2.0664  -2.0650  -2.0592  -2.0204  -2.0164  -1.9957  -1.9891
    -1.9151  -1.9048  -1.9008  -1.8982  -1.8921  -1.8896  -1.8754  -1.8482
    -1.8477  -1.8388  -1.8289  -1.8282  -1.7859  -1.7628  -1.7553  -1.7507
    -1.7325  -1.7297  -1.7293  -1.6848  -1.6659  -1.6629  -1.6572  -1.6426
    -1.6416  -1.6330  -1.5981  -1.5295  -1.5149  -1.4899  -1.4425  -1.3943
    -1.3102  -1.3066  -1.2692  -1.2662  -1.2476  -1.2439  -1.1891  -1.1845
    -1.1635  -1.0562  -1.0129  -1.0101  -0.9881  -0.9820  -0.9654  -0.9230
    -0.9060  -0.8622  -0.8544  -0.8466  -0.8403  -0.8274  -0.8086  -0.8081
    -0.7945  -0.7799  -0.7692  -0.7431  -0.6790  -0.6732  -0.6557  -0.6318
    -0.6118  -0.6105  -0.5982  -0.5530  -0.5158  -0.4906  -0.4710  -0.3934
    -0.3692  -0.3080  -0.3031   0.3366   0.3456   0.4883   0.4955   0.5032
     1.7425   1.7481   1.7617   1.7684   1.7690   1.7765   1.7896   1.7941
     1.8197   1.8210   1.8350   1.8718   1.8759   1.8777   1.8897   1.9087
     1.9252   1.9756   2.0118   2.0319   2.0454   2.0733   2.1068   2.1569
     2.1739   2.1973   2.2210   2.2640   2.3074   2.3382   2.3516   2.3518
     2.3743   2.3776   2.3808   2.3859   2.3988   2.4092   2.4269   2.4382
     2.4395   2.4411   2.4483   2.4556   2.4613   2.4776   2.4782   2.4924
     2.4938   2.4999   2.5348   2.5355   2.5542   2.5703   2.5731   2.5873
     2.6041   2.6147   2.6570   2.6709   2.7001   2.7113   2.7248   2.7266
     2.7350   2.7460   2.7526   2.7621   2.7691   2.7864   2.8045   2.8069
     2.8140   2.8222   2.8233   2.8298   2.8382   2.8393   2.8450   2.8480
     2.8617   2.8838   2.8950   2.9470   2.9920   3.0205   3.0348   3.0524
     3.1421

          k =-0.5000-0.2887 0.0000 (125440 PWs)   bands (ev):

   -74.2485 -74.2474 -74.2469 -74.2447 -74.2444 -74.2431 -74.1429 -74.1429
   -74.1425 -74.1159 -74.1126 -74.1125 -74.1119 -74.1096 -74.1094 -74.1091
   -74.1090 -74.1086 -74.1077 -74.1064 -74.1061 -74.1058 -74.1057 -74.1051
   -74.1047 -74.1036 -74.0999 -74.0988 -74.0988 -74.0781 -74.0779 -74.0773
   -74.0772 -74.0771 -74.0769 -38.6005 -38.5897 -38.5893 -38.5313 -38.5306
   -38.5215 -38.4615 -38.4529 -38.4494 -38.4419 -38.4416 -38.4381 -38.4363
   -38.4361 -38.4359 -38.4298 -38.4265 -38.4261 -38.4243 -38.4240 -38.4199
   -38.4186 -38.4181 -38.4179 -38.4128 -38.4070 -38.4015 -38.4014 -38.4008
   -38.3930 -38.3845 -38.3794 -38.3727 -38.3702 -38.3649 -38.3603 -38.3594
   -38.3594 -38.3586 -38.3573 -38.3569 -38.3530 -38.3429 -38.3411 -38.3411
   -38.3392 -38.3365 -38.3322 -38.3319 -38.3296 -38.3286 -38.3273 -38.3259
   -38.3240 -38.3231 -38.3210 -38.3193 -38.3192 -38.3170 -38.3163 -38.3151
   -38.3149 -38.3148 -38.3146 -38.3131 -38.3118 -38.3115 -38.3087 -38.3080
   -38.3073 -38.3010 -38.2989 -38.2923 -38.2879 -38.2877 -38.2874 -38.2873
   -38.2864 -38.2860 -38.2857 -38.2848 -38.2841 -38.2790 -38.2778 -38.2756
   -38.2746 -38.2724 -38.2704 -38.2678 -38.2626 -38.2611 -38.2576 -38.2552
   -38.2519 -38.2506 -38.2455 -38.2402 -38.2385 -38.2335 -38.2330 -38.2262
   -38.2244 -38.2235 -38.2183 -38.2139 -14.8603 -14.8130 -14.6474 -14.5878
   -14.2788 -14.2535 -14.2433 -14.1787 -14.0799 -13.9870 -13.7687 -13.7660
   -13.7092 -13.6279 -13.6275 -13.6013 -13.5194 -13.4858 -13.3600 -13.3428
   -13.3347 -13.3330 -13.3230 -13.3124 -13.2916 -13.2838 -13.2674 -13.2424
   -13.2222 -13.1828 -13.1783 -13.1480 -13.0930 -13.0896 -13.0882 -13.0498
   -13.0071 -12.9524 -12.9421 -12.9378 -12.9209 -12.9160 -12.8926 -12.8796
   -12.8734 -12.8549 -12.8531 -12.8249 -12.8120 -12.7953 -12.7896 -12.7786
   -12.7541 -12.7514 -12.7213 -12.6998 -12.6936 -12.6899 -12.6878 -12.6853
   -12.6776 -12.6275 -12.5915 -12.5872 -12.5762 -12.5715 -12.5614 -12.3752
   -12.2466 -12.2437 -11.8448 -11.8443  -6.3728  -6.3704  -6.3265  -6.2896
    -6.2692  -6.2595  -6.2360  -6.2005  -6.1374  -6.0526  -6.0001  -5.9342
    -5.8886  -5.8820  -5.8540  -5.8415  -5.7169  -5.6939  -5.6855  -5.6755
    -5.6278  -5.5563  -5.5380  -5.5343  -5.5281  -5.4745  -5.4646  -5.4589
    -5.4515  -5.4444  -5.4316  -5.4266  -5.4156  -5.3965  -5.3535  -5.3404
    -5.3266  -5.2970  -5.2597  -5.2487  -5.2395  -5.1938  -5.1919  -5.1541
    -5.1331  -5.0837  -5.0761  -5.0758  -5.0357  -4.9517  -4.8383  -4.8186
    -4.7472  -4.7411  -4.6324  -4.6071  -4.5847  -4.5828  -4.5665  -4.5431
    -4.4630  -4.4537  -4.4381  -4.4370  -4.4314  -4.4216  -4.4153  -4.3911
    -4.3798  -4.3762  -4.3738  -4.3522  -4.3179  -4.3054  -4.2877  -4.2785
    -4.2555  -4.2128  -4.2035  -4.1761  -4.1632  -4.1537  -4.1346  -4.1314
    -4.0926  -4.0814  -4.0615  -4.0520  -4.0146  -4.0120  -3.9464  -3.8215
    -3.7804  -3.7541  -3.7442  -3.6687  -3.6349  -3.5711  -3.5527  -3.4950
    -3.4938  -3.4866  -3.4779  -3.4692  -3.4560  -3.4541  -3.4462  -3.4316
    -3.4273  -3.4094  -3.4023  -3.3868  -3.3861  -3.3540  -3.2817  -3.2522
    -3.2485  -3.2294  -3.2110  -3.1962  -3.1827  -3.1692  -3.1572  -3.1385
    -3.1198  -3.1085  -3.0842  -3.0159  -2.9995  -2.9653  -2.9646  -2.9291
    -2.9020  -2.8519  -2.7667  -2.7538  -2.7443  -2.7324  -2.6852  -2.6391
    -2.5664  -2.5537  -2.5320  -2.5268  -2.5036  -2.4734  -2.4661  -2.4634
    -2.4306  -2.3659  -2.3488  -2.3345  -2.3324  -2.3258  -2.3158  -2.3128
    -2.2772  -2.2587  -2.2388  -2.2286  -2.2278  -2.2119  -2.1896  -2.1874
    -2.1458  -2.0689  -2.0646  -2.0588  -2.0203  -2.0168  -1.9960  -1.9891
    -1.9148  -1.9039  -1.8989  -1.8969  -1.8902  -1.8901  -1.8776  -1.8476
    -1.8462  -1.8395  -1.8302  -1.8294  -1.7858  -1.7630  -1.7552  -1.7508
    -1.7332  -1.7298  -1.7298  -1.6854  -1.6658  -1.6627  -1.6560  -1.6427
    -1.6398  -1.6328  -1.5988  -1.5295  -1.5161  -1.4906  -1.4417  -1.3949
    -1.3108  -1.3039  -1.2684  -1.2661  -1.2477  -1.2435  -1.1891  -1.1865
    -1.1641  -1.0564  -1.0133  -1.0099  -0.9889  -0.9827  -0.9647  -0.9226
    -0.9061  -0.8633  -0.8548  -0.8463  -0.8403  -0.8259  -0.8075  -0.8072
    -0.7936  -0.7804  -0.7690  -0.7414  -0.6793  -0.6725  -0.6574  -0.6337
    -0.6114  -0.6101  -0.5984  -0.5552  -0.5144  -0.4909  -0.4712  -0.3930
    -0.3685  -0.3082  -0.3029   0.3365   0.3455   0.4890   0.4940   0.5038
     1.7423   1.7484   1.7621   1.7682   1.7687   1.7773   1.7894   1.7932
     1.8194   1.8208   1.8349   1.8704   1.8761   1.8783   1.8903   1.9078
     1.9249   1.9780   2.0115   2.0321   2.0452   2.0731   2.1067   2.1566
     2.1743   2.1974   2.2219   2.2628   2.3096   2.3366   2.3493   2.3516
     2.3745   2.3769   2.3814   2.3871   2.3991   2.4094   2.4264   2.4387
     2.4391   2.4420   2.4476   2.4553   2.4622   2.4774   2.4788   2.4926
     2.4938   2.5003   2.5343   2.5352   2.5546   2.5698   2.5731   2.5873
     2.6035   2.6151   2.6558   2.6730   2.6988   2.7118   2.7249   2.7265
     2.7345   2.7465   2.7530   2.7617   2.7691   2.7864   2.8052   2.8063
     2.8131   2.8218   2.8228   2.8297   2.8392   2.8393   2.8456   2.8482
     2.8616   2.8849   2.8942   2.9459   2.9926   3.0207   3.0350   3.0524
     3.1408

     the Fermi energy is     0.3997 ev

!    total energy              =  -39671.71436618 Ry
     Harris-Foulkes estimate   =  -39671.71436624 Ry
     estimated scf accuracy    <       0.00000010 Ry

     total all-electron energy =  -1479374.829735 Ry

     The total energy is the sum of the following terms:

     one-electron contribution =  -35473.05908895 Ry
     hartree contribution      =   17837.32620101 Ry
     xc contribution           =   -2368.78860018 Ry
     ewald contribution        =   12662.44332668 Ry
     one-center paw contrib.   =  -32329.63736783 Ry
     smearing contrib. (-TS)   =       0.00116309 Ry

     convergence has been achieved in  20 iterations

     negative rho (up, down):  4.930E-02 0.000E+00

     Forces acting on atoms (cartesian axes, Ry/au):

     atom    1 type  1   force =    -0.01468818   -0.01174681    0.00000649
     atom    2 type  1   force =     0.00541045    0.00029389   -0.00011559
     atom    3 type  1   force =    -0.00007546    0.00034094   -0.00000385
     atom    4 type  1   force =    -0.00550367    0.00031371   -0.00010471
     atom    5 type  1   force =    -0.01718299   -0.00691960    0.00002386
     atom    6 type  1   force =    -0.00233544   -0.00151290    0.00003622
     atom    7 type  1   force =    -0.00060802   -0.00023823    0.00000796
     atom    8 type  1   force =     0.00040747   -0.00024675    0.00001997
     atom    9 type  1   force =     0.01450732   -0.01209514    0.00001619
     atom   10 type  1   force =     0.00264596   -0.00155215    0.00003737
     atom   11 type  1   force =     0.01773615   -0.00655101    0.00003611
     atom   12 type  1   force =     0.00006572   -0.00218822    0.00006730
     atom   13 type  1   force =     0.00291106    0.00470221   -0.00010859
     atom   14 type  1   force =    -0.00073865   -0.00019480   -0.00001841
     atom   15 type  1   force =    -0.00030223    0.00019221   -0.00007638
     atom   16 type  1   force =    -0.00020767   -0.00020415    0.00001793
     atom   17 type  1   force =     0.00033420   -0.00026366    0.00003228
     atom   18 type  1   force =     0.00025391   -0.00015800    0.00002171
     atom   19 type  1   force =    -0.00018424    0.00071422    0.00000945
     atom   20 type  1   force =    -0.00029333   -0.00013715    0.00000086
     atom   21 type  1   force =     0.00011771   -0.00003720   -0.00007916
     atom   22 type  1   force =     0.00037391   -0.00013325    0.00000134
     atom   23 type  1   force =    -0.00262426   -0.00483609   -0.00009950
     atom   24 type  1   force =    -0.00174431    0.00102747    0.00004373
     atom   25 type  1   force =    -0.00000592    0.00033134    0.00002034
     atom   26 type  1   force =     0.00005424    0.00026492    0.00001028
     atom   27 type  1   force =     0.00193753    0.00107519    0.00004845
     atom   28 type  1   force =     0.00041248   -0.00021412   -0.00001162
     atom   29 type  1   force =    -0.00298900    0.00465298   -0.00010323
     atom   30 type  1   force =    -0.00010801    0.00059836   -0.00000093
     atom   31 type  1   force =    -0.00030092   -0.00010104    0.00003232
     atom   32 type  1   force =     0.00012650    0.00276066    0.00005239
     atom   33 type  1   force =     0.00251187   -0.00479103   -0.00010688
     atom   34 type  1   force =    -0.00265334    0.01835995    0.00001509
     atom   35 type  1   force =     0.00287361    0.01863334    0.00003496
     atom   36 type  2   force =     0.00306998   -0.00014287   -0.00054506
     atom   37 type  2   force =    -0.00036422   -0.00036398   -0.00132421
     atom   38 type  2   force =     0.00016492   -0.00036780   -0.00132460
     atom   39 type  2   force =    -0.00307521   -0.00006426   -0.00046532
     atom   40 type  2   force =    -0.00187392   -0.00126675   -0.00324018
     atom   41 type  2   force =     0.00054201   -0.00078773   -0.00170543
     atom   42 type  2   force =    -0.00006753   -0.00014796   -0.00153293
     atom   43 type  2   force =    -0.00054392   -0.00071772   -0.00164077
     atom   44 type  2   force =     0.00308076   -0.00014745    0.00054369
     atom   45 type  2   force =    -0.00036631   -0.00036174    0.00132985
     atom   46 type  2   force =     0.00016891   -0.00036600    0.00132498
     atom   47 type  2   force =    -0.00308455   -0.00006604    0.00046703
     atom   48 type  2   force =    -0.00187980   -0.00126907    0.00325661
     atom   49 type  2   force =     0.00053551   -0.00078608    0.00171289
     atom   50 type  2   force =    -0.00006737   -0.00015164    0.00155737
     atom   51 type  2   force =    -0.00053793   -0.00071570    0.00164770
     atom   52 type  2   force =    -0.00953232   -0.00573081    0.00212090
     atom   53 type  2   force =     0.00979859   -0.00565626    0.00212213
     atom   54 type  2   force =     0.00232656   -0.00135033   -0.00319206
     atom   55 type  2   force =     0.00019662    0.01110657    0.00213240
     atom   56 type  2   force =    -0.00953147   -0.00572572   -0.00213924
     atom   57 type  2   force =     0.00979951   -0.00565133   -0.00213918
     atom   58 type  2   force =     0.00233197   -0.00135166    0.00320524
     atom   59 type  2   force =     0.00019818    0.01111091   -0.00213702
     atom   60 type  2   force =     0.00148248    0.00264507   -0.00051460
     atom   61 type  2   force =    -0.00053515    0.00085627   -0.00170600
     atom   62 type  2   force =    -0.00022001    0.00016561   -0.00145006
     atom   63 type  2   force =    -0.00044135    0.00024620   -0.00139370
     atom   64 type  2   force =     0.00009037    0.00031254   -0.00093003
     atom   65 type  2   force =    -0.00041478   -0.00005894   -0.00135817
     atom   66 type  2   force =    -0.00029402    0.00017067   -0.00158309
     atom   67 type  2   force =    -0.00026055    0.00010526   -0.00145142
     atom   68 type  2   force =     0.00028380    0.00006861   -0.00144141
     atom   69 type  2   force =    -0.00010711    0.00005169   -0.00145887
     atom   70 type  2   force =    -0.00015930    0.00037727   -0.00136704
     atom   71 type  2   force =    -0.00102646    0.00001493   -0.00171478
     atom   72 type  2   force =     0.00035759   -0.00020049   -0.00091751
     atom   73 type  2   force =     0.00007306   -0.00028013   -0.00144378
     atom   74 type  2   force =    -0.00022344   -0.00022666   -0.00094240
     atom   75 type  2   force =    -0.00156741   -0.00259918   -0.00051817
     atom   76 type  2   force =     0.00147902    0.00265562    0.00050923
     atom   77 type  2   force =    -0.00054021    0.00085510    0.00171359
     atom   78 type  2   force =    -0.00021938    0.00016679    0.00144375
     atom   79 type  2   force =    -0.00044152    0.00024642    0.00138825
     atom   80 type  2   force =     0.00009041    0.00031630    0.00096285
     atom   81 type  2   force =    -0.00041475   -0.00005654    0.00136999
     atom   82 type  2   force =    -0.00029805    0.00017265    0.00160884
     atom   83 type  2   force =    -0.00026105    0.00010188    0.00145657
     atom   84 type  2   force =     0.00029128    0.00007254    0.00144161
     atom   85 type  2   force =    -0.00011447    0.00005716    0.00146259
     atom   86 type  2   force =    -0.00015755    0.00038059    0.00136542
     atom   87 type  2   force =    -0.00102544    0.00001909    0.00171826
     atom   88 type  2   force =     0.00035911   -0.00019917    0.00094890
     atom   89 type  2   force =     0.00007355   -0.00028830    0.00145074
     atom   90 type  2   force =    -0.00022537   -0.00022557    0.00097288
     atom   91 type  2   force =    -0.00157559   -0.00260277    0.00052517
     atom   92 type  2   force =     0.00034839    0.00081957   -0.00163895
     atom   93 type  2   force =    -0.00149355    0.00268468   -0.00046832
     atom   94 type  2   force =     0.00009676    0.00013474   -0.00153518
     atom   95 type  2   force =     0.00039029    0.00003972   -0.00132352
     atom   96 type  2   force =     0.00096004   -0.00009144   -0.00171002
     atom   97 type  2   force =     0.00012785    0.00047618   -0.00133132
     atom   98 type  2   force =     0.00015465    0.00226884   -0.00325761
     atom   99 type  2   force =     0.00166211   -0.00258462   -0.00055251
     atom  100 type  2   force =     0.00035246    0.00081770    0.00164147
     atom  101 type  2   force =    -0.00149026    0.00269318    0.00046456
     atom  102 type  2   force =     0.00010323    0.00013587    0.00155997
     atom  103 type  2   force =     0.00039265    0.00004169    0.00133616
     atom  104 type  2   force =     0.00095933   -0.00008938    0.00171171
     atom  105 type  2   force =     0.00012903    0.00047866    0.00133483
     atom  106 type  2   force =     0.00015486    0.00227334    0.00326561
     atom  107 type  2   force =     0.00167101   -0.00258789    0.00055695

     Total force =     0.058660     Total SCF correction =     0.000879

     BFGS Geometry Optimization

     number of scf cycles    =   1
     number of bfgs steps    =   0

     energy   new            =  -39671.7143661756 Ry

     new trust radius        =       0.0189073559 bohr
     new conv_thr            =       0.0000001000 Ry


ATOMIC_POSITIONS (angstrom)
W       -3.277092342   7.571498214   7.240003494
W        0.003702763   7.577476677   7.239937204
W        3.280544831   7.577890506   7.239998707
W        6.556177192   7.576409272   7.239942478
W       -4.922625553  10.420763901   7.240016092
W       -1.638909245  10.415060956   7.240015815
W        1.642408689  10.414671403   7.240001727
W        4.920536026  10.414355418   7.240007809
W        9.834117666   7.571813741   7.240008222
W        8.197690974  10.415449107   7.240013120
W       11.478578573  10.420120963   7.240021218
W       -6.552041523  13.252502651   7.240032658
W       -3.273334772  13.256183770   7.239943865
W        0.005519935  13.252958891   7.239990375
W        3.284294554  13.252228225   7.239952098
W       -8.191742539  16.093365126   7.240012282
W       -4.912790356  16.092884449   7.240022770
W       -1.633776208  16.091655002   7.240012539
W        1.644286622  16.091347190   7.240002622
W        0.000917657   1.901910836   7.239997887
W        3.279096774   1.901827836   7.239953349
W        6.557992614   1.900656693   7.240002065
W        9.834413481   1.899205953   7.239944880
W       -1.640711654   4.742276235   7.240016135
W        1.639943022   4.740769531   7.240008982
W        4.918090082   4.740081420   7.240005058
W        8.198233609   4.740500668   7.240020124
W        6.560071635  13.254125453   7.239989508
W        9.835675574  13.256619262   7.239943262
W        4.920717976  16.092899358   7.239994121
W        8.196564005  16.092638941   7.240012980
W       13.112077491   1.904303183   7.240021132
W       16.390840161   1.900587769   7.239937933
W       11.465319134   4.745252021   7.240005381
W       14.755586068   4.744801889   7.240014867
Se      -1.637908674   6.632414607   5.562841592
Se       1.640143769   6.632896867   5.565498346
Se       4.920033519   6.632045377   5.565291985
Se       8.196514338   6.630577889   5.562572109
Se      -3.281588436   9.468736484   5.566012466
Se       0.001851342   9.470095067   5.565523512
Se       3.281176013   9.469505041   5.565070572
Se       6.558605164   9.468702283   5.564821831
Se      -1.637904005   6.632410617   8.917136225
Se       1.640141330   6.632899424   8.914489429
Se       4.920037022   6.632048587   8.914693627
Se       8.196510402   6.630577348   8.917408259
Se      -3.281585665   9.468735681   8.913984763
Se       0.001848418   9.470098581   8.914463522
Se       3.281176368   9.469505227   8.914926359
Se       6.558609714   9.468707569   8.915161870
Se      11.501270443   6.650467712   5.600580036
Se      14.719370539   6.650169070   5.601031893
Se       9.837611949   9.468667742   5.565270268
Se      13.110060596   9.436977867   5.600598032
Se      11.501189741   6.650422297   8.879523299
Se      14.719451777   6.650122574   8.879070087
Se       9.837607911   9.468669440   8.914722523
Se      13.110060719   9.437071498   8.879516075
Se      -4.914059077  12.309640207   5.562714472
Se      -1.634513270  12.307945471   5.565497482
Se       1.645194484  12.306751882   5.565466829
Se       4.922692730  12.306277910   5.564965387
Se      -6.552371290  15.146310334   5.566020783
Se      -3.273649241  15.145620250   5.565845291
Se       0.005823066  15.145048628   5.565609629
Se       3.283535768  15.144448684   5.565461200
Se       1.639768416   0.955782009   5.565637601
Se       4.918593075   0.955233205   5.565793018
Se       8.197942682   0.954738774   5.565848748
Se      11.475008558   0.954044471   5.565477588
Se      -0.000592273   3.795352575   5.566082564
Se       3.278709848   3.794525519   5.565639196
Se       6.557967386   3.793864032   5.566029935
Se       9.833777784   3.793381239   5.562725656
Se      -4.914062314  12.309645275   8.917268353
Se      -1.634513977  12.307942455   8.914492495
Se       1.645198154  12.306753149   8.914511174
Se       4.922692699  12.306280581   8.915009966
Se      -6.552373033  15.146308549   8.913989668
Se      -3.273645619  15.145618876   8.914153161
Se       0.005824889  15.145050138   8.914390616
Se       3.283538171  15.144447148   8.914519567
Se       1.639770416   0.955788685   8.914350825
Se       4.918588903   0.955241265   8.914202253
Se       8.197947753   0.954741416   8.914138912
Se      11.475012967   0.954048629   8.914503988
Se      -0.000596041   3.795355021   8.913915097
Se       3.278709280   3.794523076   8.914352692
Se       6.557970677   3.793868223   8.913971755
Se       9.833775360   3.793381164   8.917256853
Se       8.198082844  12.308337381   5.564830391
Se      11.474920147  12.308937922   5.562554439
Se       6.558659239  15.146281760   5.565082740
Se       9.835417878  15.145715755   5.565292540
Se      14.750830110   0.955852893   5.565509455
Se      18.027061749   0.955650454   5.565499040
Se      13.110299041   3.800060383   5.565976537
Se      16.388448927   3.794769816   5.562833236
Se       8.198082513  12.308335330   8.915148591
Se      11.474921209  12.308942951   8.917426547
Se       6.558660657  15.146283479   8.914906534
Se       9.835413647  15.145715289   8.914698501
Se      14.750829125   0.955855250   8.914466887
Se      18.027058445   0.955651484   8.914482912
Se      13.110300356   3.800058307   8.914007613
Se      16.388452675   3.794768611   8.917143533



     Writing output data file v.save/
     Check: negative starting charge=   -0.045889
     NEW-OLD atomic charge density approx. for the potential

     Check: negative/imaginary core charge=   -0.000012    0.000000
     Check: negative starting charge=   -0.045868

     negative rho (up, down):  4.928E-02 0.000E+00

     total cpu time spent up to now is     1983.5 secs

     Self-consistent Calculation

     iteration #  1     ecut=    30.00 Ry     beta= 0.20
     Davidson diagonalization with overlap
     c_bands:  3 eigenvalues not converged
     ethr =  1.00E-06,  avg # of iterations =  8.8

     Threshold (ethr) on eigenvalues was too large:
     Diagonalizing with lowered threshold

     Davidson diagonalization with overlap
     ethr =  3.88E-08,  avg # of iterations =  2.0

     negative rho (up, down):  4.928E-02 0.000E+00

     total cpu time spent up to now is     2328.3 secs

     total energy              =  -39671.71686545 Ry
     Harris-Foulkes estimate   =  -39671.72129680 Ry
     estimated scf accuracy    <       0.00035629 Ry

     iteration #  2     ecut=    30.00 Ry     beta= 0.20
     Davidson diagonalization with overlap
     ethr =  3.86E-08,  avg # of iterations =  3.0

     negative rho (up, down):  4.928E-02 0.000E+00

     total cpu time spent up to now is     2412.1 secs

     total energy              =  -39671.71691976 Ry
     Harris-Foulkes estimate   =  -39671.71690873 Ry
     estimated scf accuracy    <       0.00016721 Ry

     iteration #  3     ecut=    30.00 Ry     beta= 0.20
     Davidson diagonalization with overlap
     ethr =  1.81E-08,  avg # of iterations =  2.0

     negative rho (up, down):  4.929E-02 0.000E+00

     total cpu time spent up to now is     2487.7 secs

     total energy              =  -39671.71697639 Ry
     Harris-Foulkes estimate   =  -39671.71693826 Ry
     estimated scf accuracy    <       0.00009804 Ry

     iteration #  4     ecut=    30.00 Ry     beta= 0.20
     Davidson diagonalization with overlap
     ethr =  1.06E-08,  avg # of iterations =  2.0

     negative rho (up, down):  4.929E-02 0.000E+00

     total cpu time spent up to now is     2566.0 secs

     total energy              =  -39671.71703288 Ry
     Harris-Foulkes estimate   =  -39671.71699720 Ry
     estimated scf accuracy    <       0.00012050 Ry

     iteration #  5     ecut=    30.00 Ry     beta= 0.20
     Davidson diagonalization with overlap
     ethr =  1.06E-08,  avg # of iterations =  2.0

     negative rho (up, down):  4.929E-02 0.000E+00

     total cpu time spent up to now is     2643.1 secs

     total energy              =  -39671.71706649 Ry
     Harris-Foulkes estimate   =  -39671.71704532 Ry
     estimated scf accuracy    <       0.00001205 Ry

     iteration #  6     ecut=    30.00 Ry     beta= 0.20
     Davidson diagonalization with overlap
     ethr =  1.31E-09,  avg # of iterations =  2.0

     negative rho (up, down):  4.929E-02 0.000E+00

     total cpu time spent up to now is     2721.5 secs

     total energy              =  -39671.71708810 Ry
     Harris-Foulkes estimate   =  -39671.71706870 Ry
     estimated scf accuracy    <       0.00000914 Ry

     iteration #  7     ecut=    30.00 Ry     beta= 0.20
     Davidson diagonalization with overlap
     ethr =  9.92E-10,  avg # of iterations =  2.0

     negative rho (up, down):  4.929E-02 0.000E+00

     total cpu time spent up to now is     2799.3 secs

     total energy              =  -39671.71710799 Ry
     Harris-Foulkes estimate   =  -39671.71708930 Ry
     estimated scf accuracy    <       0.00000258 Ry

     iteration #  8     ecut=    30.00 Ry     beta= 0.20
     Davidson diagonalization with overlap
     ethr =  2.79E-10,  avg # of iterations =  3.0

     negative rho (up, down):  4.929E-02 0.000E+00

     total cpu time spent up to now is     2886.2 secs

     total energy              =  -39671.71711946 Ry
     Harris-Foulkes estimate   =  -39671.71710870 Ry
     estimated scf accuracy    <       0.00000139 Ry

     iteration #  9     ecut=    30.00 Ry     beta= 0.20
     Davidson diagonalization with overlap
     ethr =  1.51E-10,  avg # of iterations =  3.0

     negative rho (up, down):  4.929E-02 0.000E+00

     total cpu time spent up to now is     2970.4 secs

     total energy              =  -39671.71713687 Ry
     Harris-Foulkes estimate   =  -39671.71711971 Ry
     estimated scf accuracy    <       0.00000094 Ry

     iteration # 10     ecut=    30.00 Ry     beta= 0.20
     Davidson diagonalization with overlap
     ethr =  1.02E-10,  avg # of iterations =  3.0

     negative rho (up, down):  4.929E-02 0.000E+00

     total cpu time spent up to now is     3074.6 secs

     total energy              =  -39671.71714000 Ry
     Harris-Foulkes estimate   =  -39671.71713823 Ry
     estimated scf accuracy    <       0.00000047 Ry

     iteration # 11     ecut=    30.00 Ry     beta= 0.20
     Davidson diagonalization with overlap
     ethr =  5.11E-11,  avg # of iterations =  2.8

     negative rho (up, down):  4.929E-02 0.000E+00

     total cpu time spent up to now is     3158.6 secs

     total energy              =  -39671.71714136 Ry
     Harris-Foulkes estimate   =  -39671.71714010 Ry
     estimated scf accuracy    <       0.00000023 Ry

     iteration # 12     ecut=    30.00 Ry     beta= 0.20
     Davidson diagonalization with overlap
     ethr =  2.54E-11,  avg # of iterations =  3.0

     negative rho (up, down):  4.929E-02 0.000E+00

     total cpu time spent up to now is     3248.1 secs

     total energy              =  -39671.71714160 Ry
     Harris-Foulkes estimate   =  -39671.71714147 Ry
     estimated scf accuracy    <       0.00000010 Ry

     iteration # 13     ecut=    30.00 Ry     beta= 0.20
     Davidson diagonalization with overlap
     ethr =  1.13E-11,  avg # of iterations =  2.0

     negative rho (up, down):  4.929E-02 0.000E+00

     total cpu time spent up to now is     3325.6 secs

     End of self-consistent calculation

          k = 0.0000 0.0000 0.0000 (125381 PWs)   bands (ev):

   -74.2494 -74.2482 -74.2479 -74.2455 -74.2451 -74.2439 -74.1433 -74.1432
   -74.1428 -74.1161 -74.1131 -74.1130 -74.1107 -74.1100 -74.1100 -74.1094
   -74.1081 -74.1078 -74.1077 -74.1076 -74.1075 -74.1072 -74.1049 -74.1047
   -74.1033 -74.1030 -74.0987 -74.0977 -74.0977 -74.0774 -74.0772 -74.0766
   -74.0765 -74.0764 -74.0763 -38.5985 -38.5873 -38.5872 -38.5303 -38.5299
   -38.5214 -38.4661 -38.4547 -38.4544 -38.4443 -38.4392 -38.4384 -38.4382
   -38.4344 -38.4344 -38.4263 -38.4261 -38.4257 -38.4256 -38.4231 -38.4215
   -38.4204 -38.4203 -38.4199 -38.4032 -38.4031 -38.4003 -38.3947 -38.3947
   -38.3919 -38.3863 -38.3862 -38.3792 -38.3792 -38.3692 -38.3628 -38.3626
   -38.3592 -38.3569 -38.3565 -38.3525 -38.3520 -38.3411 -38.3410 -38.3409
   -38.3371 -38.3371 -38.3311 -38.3310 -38.3279 -38.3278 -38.3272 -38.3266
   -38.3253 -38.3253 -38.3250 -38.3182 -38.3179 -38.3179 -38.3175 -38.3157
   -38.3157 -38.3134 -38.3116 -38.3073 -38.3070 -38.3060 -38.3053 -38.3051
   -38.2989 -38.2988 -38.2987 -38.2914 -38.2874 -38.2874 -38.2874 -38.2870
   -38.2869 -38.2863 -38.2861 -38.2849 -38.2829 -38.2791 -38.2790 -38.2788
   -38.2676 -38.2652 -38.2649 -38.2632 -38.2629 -38.2609 -38.2582 -38.2554
   -38.2552 -38.2538 -38.2511 -38.2507 -38.2371 -38.2368 -38.2277 -38.2271
   -38.2264 -38.2181 -38.2116 -38.2112 -14.9370 -14.5552 -14.5545 -14.5534
   -14.5305 -14.5301 -14.3487 -13.8501 -13.8500 -13.8315 -13.7874 -13.7874
   -13.7169 -13.6651 -13.5614 -13.5608 -13.5608 -13.4792 -13.4790 -13.4790
   -13.4779 -13.4759 -13.4558 -13.4552 -13.3527 -13.3062 -13.1329 -13.1327
   -13.1147 -13.0844 -13.0843 -13.0572 -12.9941 -12.9941 -12.9912 -12.9515
   -12.9508 -12.9387 -12.9360 -12.9359 -12.9338 -12.9311 -12.9309 -12.9299
   -12.9296 -12.9247 -12.9122 -12.9093 -12.9085 -12.8384 -12.6988 -12.6983
   -12.6905 -12.6886 -12.6883 -12.6863 -12.6856 -12.6853 -12.6835 -12.6811
   -12.6807 -12.6749 -12.6697 -12.6697 -12.5945 -12.5348 -12.5347 -12.3836
   -12.2620 -12.2619 -11.8691 -11.8686  -6.5114  -6.5113  -6.4808  -6.3649
    -5.9614  -5.9575  -5.9545  -5.9544  -5.9528  -5.9526  -5.9338  -5.9332
    -5.9281  -5.8833  -5.8826  -5.8817  -5.8616  -5.8613  -5.8482  -5.8478
    -5.7679  -5.7018  -5.6111  -5.6110  -5.5788  -5.5410  -5.5409  -5.5178
    -5.5175  -5.4959  -5.3972  -5.2813  -5.2809  -5.2682  -5.1773  -5.1690
    -5.1687  -5.1667  -5.1662  -5.1661  -5.1605  -5.1527  -5.1449  -5.1444
    -5.1444  -5.1421  -5.1416  -5.0383  -5.0383  -5.0300  -4.9716  -4.9180
    -4.9179  -4.6364  -4.6347  -4.6347  -4.5929  -4.5816  -4.5815  -4.5558
    -4.5558  -4.5228  -4.5211  -4.5206  -4.4819  -4.4751  -4.4750  -4.4393
    -4.4369  -4.4359  -4.4194  -4.4187  -4.3412  -4.3161  -4.3157  -4.3040
    -4.2413  -4.2409  -4.2339  -4.2256  -4.2252  -4.2195  -4.2194  -4.2100
    -4.0653  -3.9538  -3.9538  -3.8515  -3.8031  -3.7855  -3.7853  -3.7673
    -3.7666  -3.6958  -3.6257  -3.6248  -3.5170  -3.5168  -3.5104  -3.4515
    -3.4491  -3.4482  -3.4469  -3.4409  -3.4397  -3.4393  -3.4392  -3.4353
    -3.4349  -3.3849  -3.3840  -3.3558  -3.3215  -3.2968  -3.2890  -3.2889
    -3.2545  -3.2540  -3.2402  -3.2363  -3.2041  -3.2036  -3.0953  -3.0946
    -3.0938  -3.0725  -3.0712  -3.0494  -2.9616  -2.8950  -2.8947  -2.7924
    -2.7919  -2.7877  -2.7771  -2.7759  -2.7458  -2.7347  -2.7340  -2.7315
    -2.7314  -2.7295  -2.6930  -2.6901  -2.6177  -2.6165  -2.6057  -2.4984
    -2.4984  -2.3773  -2.3767  -2.3461  -2.3445  -2.3086  -2.2640  -2.2420
    -2.2408  -2.1113  -2.1111  -2.1102  -2.1078  -2.1064  -2.1058  -2.0945
    -2.0931  -2.0882  -2.0878  -2.0858  -2.0847  -2.0837  -2.0759  -2.0691
    -2.0654  -2.0648  -2.0552  -2.0544  -2.0512  -2.0330  -2.0102  -1.9982
    -1.9973  -1.9950  -1.8811  -1.8773  -1.8606  -1.8599  -1.8441  -1.8397
    -1.8391  -1.7473  -1.7459  -1.4397  -1.4393  -1.4085  -1.4001  -1.3992
    -1.3937  -1.3616  -1.3612  -1.3496  -1.3472  -1.3443  -1.3441  -1.3242
    -1.3239  -1.3056  -1.3055  -1.2643  -1.2586  -1.2481  -1.2471  -1.2182
    -1.2177  -1.1907  -1.1204  -1.1197  -1.0752  -1.0290  -1.0285  -0.9015
    -0.8901  -0.8895  -0.8824  -0.8822  -0.8518  -0.8350  -0.7856  -0.7823
    -0.7821  -0.6864  -0.6803  -0.6786  -0.6615  -0.6598  -0.6166  -0.6099
    -0.6091  -0.6056  -0.6051  -0.6047  -0.5800  -0.5624  -0.5623  -0.5311
    -0.5024  -0.1814  -0.1812   0.3186   0.3187   0.4995   0.5279   0.5293
     1.5798   1.6013   1.6093   1.6094   1.6175   1.6651   1.6653   1.6945
     2.0281   2.0316   2.0323   2.0510   2.0516   2.0568   2.0669   2.0779
     2.0785   2.0923   2.0980   2.0982   2.0991   2.1201   2.1208   2.1228
     2.1278   2.1389   2.1392   2.1672   2.1673   2.2050   2.2056   2.2625
     2.2918   2.2925   2.2945   2.3396   2.3406   2.3684   2.3914   2.4197
     2.4199   2.4325   2.4457   2.4462   2.4886   2.4985   2.4990   2.5078
     2.5079   2.5085   2.5098   2.5452   2.5458   2.5665   2.5666   2.5887
     2.6482   2.6633   2.6636   2.6684   2.6818   2.6825   2.6853   2.7364
     2.7377   2.7507   2.7516   2.7629   2.7760   2.7780   2.7788   2.7793
     2.7823   2.7823   2.7891   2.7895   2.7895   2.7896   2.8117   2.9791
     2.9796   3.1278   3.1348   3.1355   3.1361   3.1381   3.1387   3.1472
     3.1490

          k = 0.0000-0.5774 0.0000 (125440 PWs)   bands (ev):

   -74.2494 -74.2482 -74.2479 -74.2455 -74.2451 -74.2439 -74.1433 -74.1432
   -74.1428 -74.1161 -74.1131 -74.1130 -74.1108 -74.1100 -74.1099 -74.1094
   -74.1081 -74.1078 -74.1077 -74.1077 -74.1075 -74.1072 -74.1049 -74.1047
   -74.1033 -74.1030 -74.0987 -74.0977 -74.0977 -74.0774 -74.0772 -74.0766
   -74.0765 -74.0764 -74.0763 -38.5984 -38.5872 -38.5871 -38.5309 -38.5305
   -38.5209 -38.4638 -38.4540 -38.4508 -38.4443 -38.4407 -38.4384 -38.4382
   -38.4372 -38.4351 -38.4291 -38.4263 -38.4261 -38.4260 -38.4253 -38.4200
   -38.4198 -38.4177 -38.4166 -38.4122 -38.4060 -38.4011 -38.4010 -38.4002
   -38.3919 -38.3834 -38.3790 -38.3715 -38.3699 -38.3641 -38.3597 -38.3591
   -38.3589 -38.3583 -38.3571 -38.3566 -38.3528 -38.3422 -38.3410 -38.3400
   -38.3389 -38.3363 -38.3312 -38.3310 -38.3286 -38.3283 -38.3274 -38.3256
   -38.3242 -38.3224 -38.3203 -38.3183 -38.3182 -38.3166 -38.3161 -38.3159
   -38.3157 -38.3147 -38.3146 -38.3117 -38.3115 -38.3113 -38.3074 -38.3069
   -38.3062 -38.3007 -38.2986 -38.2916 -38.2875 -38.2873 -38.2870 -38.2869
   -38.2860 -38.2856 -38.2854 -38.2842 -38.2841 -38.2784 -38.2775 -38.2748
   -38.2736 -38.2717 -38.2694 -38.2673 -38.2620 -38.2604 -38.2572 -38.2541
   -38.2512 -38.2496 -38.2447 -38.2396 -38.2379 -38.2323 -38.2316 -38.2252
   -38.2240 -38.2225 -38.2170 -38.2129 -14.8563 -14.8087 -14.6428 -14.5828
   -14.2727 -14.2480 -14.2403 -14.1758 -14.0731 -13.9836 -13.7641 -13.7620
   -13.7052 -13.6264 -13.6240 -13.5994 -13.5172 -13.4828 -13.3551 -13.3395
   -13.3309 -13.3279 -13.3198 -13.3101 -13.2889 -13.2821 -13.2622 -13.2375
   -13.2174 -13.1805 -13.1741 -13.1444 -13.0884 -13.0869 -13.0850 -13.0456
   -13.0022 -12.9509 -12.9371 -12.9338 -12.9172 -12.9120 -12.8871 -12.8748
   -12.8706 -12.8530 -12.8496 -12.8203 -12.8074 -12.7920 -12.7858 -12.7734
   -12.7518 -12.7489 -12.7172 -12.6923 -12.6895 -12.6871 -12.6857 -12.6827
   -12.6748 -12.6209 -12.5898 -12.5839 -12.5734 -12.5681 -12.5575 -12.3822
   -12.2649 -12.2617 -11.8690 -11.8685  -6.3692  -6.3662  -6.3217  -6.2859
    -6.2661  -6.2562  -6.2321  -6.1971  -6.1341  -6.0475  -5.9960  -5.9295
    -5.8847  -5.8771  -5.8504  -5.8366  -5.7126  -5.6917  -5.6830  -5.6720
    -5.6242  -5.5504  -5.5325  -5.5295  -5.5256  -5.4683  -5.4623  -5.4542
    -5.4476  -5.4425  -5.4270  -5.4220  -5.4126  -5.3893  -5.3477  -5.3349
    -5.3230  -5.2911  -5.2573  -5.2458  -5.2380  -5.1909  -5.1892  -5.1516
    -5.1350  -5.0808  -5.0747  -5.0707  -5.0338  -4.9502  -4.8345  -4.8158
    -4.7464  -4.7388  -4.6273  -4.6047  -4.5806  -4.5794  -4.5623  -4.5411
    -4.4614  -4.4495  -4.4392  -4.4333  -4.4268  -4.4193  -4.4115  -4.3861
    -4.3760  -4.3738  -4.3706  -4.3476  -4.3151  -4.3014  -4.2851  -4.2749
    -4.2522  -4.2093  -4.2003  -4.1719  -4.1619  -4.1511  -4.1284  -4.1252
    -4.0921  -4.0799  -4.0575  -4.0529  -4.0130  -4.0123  -3.9442  -3.8251
    -3.7824  -3.7522  -3.7407  -3.6695  -3.6331  -3.5684  -3.5507  -3.4920
    -3.4904  -3.4852  -3.4765  -3.4681  -3.4662  -3.4621  -3.4447  -3.4296
    -3.4239  -3.4136  -3.4053  -3.3863  -3.3847  -3.3498  -3.2791  -3.2495
    -3.2447  -3.2308  -3.2108  -3.1933  -3.1778  -3.1655  -3.1539  -3.1360
    -3.1137  -3.1070  -3.0807  -3.0128  -2.9943  -2.9611  -2.9604  -2.9305
    -2.9020  -2.8523  -2.7654  -2.7503  -2.7397  -2.7307  -2.6807  -2.6336
    -2.5650  -2.5493  -2.5292  -2.5287  -2.4995  -2.4727  -2.4664  -2.4664
    -2.4260  -2.3648  -2.3452  -2.3340  -2.3304  -2.3201  -2.3161  -2.3099
    -2.2742  -2.2584  -2.2378  -2.2287  -2.2286  -2.2070  -2.1913  -2.1887
    -2.1392  -2.0646  -2.0626  -2.0596  -2.0199  -2.0145  -1.9972  -1.9903
    -1.9189  -1.8998  -1.8957  -1.8944  -1.8878  -1.8870  -1.8722  -1.8449
    -1.8435  -1.8363  -1.8272  -1.8266  -1.7842  -1.7633  -1.7556  -1.7511
    -1.7329  -1.7291  -1.7284  -1.6875  -1.6647  -1.6641  -1.6560  -1.6476
    -1.6348  -1.6340  -1.5954  -1.5420  -1.5181  -1.4948  -1.4399  -1.3931
    -1.3101  -1.3049  -1.2708  -1.2657  -1.2463  -1.2451  -1.1904  -1.1870
    -1.1660  -1.0549  -1.0113  -1.0067  -0.9861  -0.9822  -0.9646  -0.9262
    -0.8985  -0.8631  -0.8543  -0.8443  -0.8376  -0.8261  -0.8065  -0.8044
    -0.7910  -0.7726  -0.7655  -0.7414  -0.6728  -0.6698  -0.6577  -0.6299
    -0.6159  -0.6076  -0.5961  -0.5563  -0.5160  -0.4844  -0.4716  -0.3909
    -0.3683  -0.3067  -0.2972   0.3254   0.3344   0.4926   0.5009   0.5175
     1.7416   1.7485   1.7606   1.7672   1.7675   1.7768   1.7895   1.7952
     1.8208   1.8222   1.8306   1.8682   1.8727   1.8817   1.8826   1.9129
     1.9238   1.9786   2.0125   2.0308   2.0441   2.0679   2.0985   2.1570
     2.1742   2.1954   2.2222   2.2626   2.3094   2.3330   2.3514   2.3517
     2.3755   2.3774   2.3817   2.3877   2.3980   2.4094   2.4256   2.4363
     2.4368   2.4419   2.4482   2.4536   2.4655   2.4765   2.4835   2.4924
     2.4968   2.4979   2.5343   2.5360   2.5502   2.5708   2.5736   2.5897
     2.6085   2.6143   2.6550   2.6728   2.6987   2.7156   2.7210   2.7272
     2.7351   2.7470   2.7550   2.7597   2.7679   2.7873   2.7998   2.8019
     2.8090   2.8200   2.8204   2.8277   2.8367   2.8390   2.8435   2.8484
     2.8707   2.8929   2.8987   2.9467   2.9938   3.0173   3.0350   3.0528
     3.1411

          k = 0.5000-0.2887 0.0000 (125440 PWs)   bands (ev):

   -74.2494 -74.2482 -74.2479 -74.2455 -74.2451 -74.2439 -74.1433 -74.1432
   -74.1428 -74.1161 -74.1131 -74.1130 -74.1108 -74.1100 -74.1100 -74.1094
   -74.1081 -74.1078 -74.1078 -74.1076 -74.1075 -74.1072 -74.1049 -74.1047
   -74.1033 -74.1030 -74.0987 -74.0977 -74.0977 -74.0774 -74.0772 -74.0766
   -74.0765 -74.0764 -74.0763 -38.5984 -38.5873 -38.5870 -38.5309 -38.5305
   -38.5209 -38.4638 -38.4538 -38.4511 -38.4443 -38.4407 -38.4384 -38.4382
   -38.4373 -38.4351 -38.4290 -38.4262 -38.4261 -38.4260 -38.4253 -38.4200
   -38.4199 -38.4176 -38.4166 -38.4122 -38.4060 -38.4011 -38.4010 -38.4002
   -38.3918 -38.3834 -38.3790 -38.3715 -38.3699 -38.3642 -38.3598 -38.3589
   -38.3589 -38.3583 -38.3570 -38.3568 -38.3528 -38.3423 -38.3409 -38.3401
   -38.3390 -38.3363 -38.3311 -38.3311 -38.3286 -38.3282 -38.3273 -38.3256
   -38.3243 -38.3223 -38.3203 -38.3183 -38.3182 -38.3167 -38.3161 -38.3159
   -38.3158 -38.3147 -38.3145 -38.3118 -38.3115 -38.3113 -38.3072 -38.3071
   -38.3062 -38.3007 -38.2988 -38.2914 -38.2876 -38.2872 -38.2870 -38.2869
   -38.2859 -38.2858 -38.2853 -38.2842 -38.2839 -38.2780 -38.2779 -38.2745
   -38.2741 -38.2716 -38.2700 -38.2673 -38.2616 -38.2597 -38.2573 -38.2542
   -38.2510 -38.2500 -38.2443 -38.2396 -38.2383 -38.2320 -38.2319 -38.2244
   -38.2238 -38.2237 -38.2171 -38.2126 -14.8570 -14.8077 -14.6427 -14.5836
   -14.2727 -14.2480 -14.2402 -14.1753 -14.0730 -13.9837 -13.7640 -13.7627
   -13.7054 -13.6271 -13.6239 -13.5983 -13.5170 -13.4838 -13.3551 -13.3395
   -13.3308 -13.3278 -13.3199 -13.3099 -13.2887 -13.2813 -13.2622 -13.2372
   -13.2174 -13.1807 -13.1742 -13.1440 -13.0882 -13.0868 -13.0861 -13.0458
   -13.0023 -12.9513 -12.9375 -12.9338 -12.9171 -12.9119 -12.8871 -12.8746
   -12.8703 -12.8526 -12.8497 -12.8204 -12.8074 -12.7920 -12.7851 -12.7730
   -12.7518 -12.7493 -12.7172 -12.6931 -12.6891 -12.6878 -12.6863 -12.6823
   -12.6748 -12.6208 -12.5896 -12.5836 -12.5733 -12.5680 -12.5576 -12.3822
   -12.2649 -12.2618 -11.8691 -11.8684  -6.3696  -6.3674  -6.3204  -6.2854
    -6.2666  -6.2566  -6.2315  -6.1960  -6.1341  -6.0472  -5.9959  -5.9300
    -5.8848  -5.8771  -5.8513  -5.8380  -5.7125  -5.6915  -5.6829  -5.6718
    -5.6238  -5.5503  -5.5328  -5.5297  -5.5257  -5.4685  -5.4616  -5.4548
    -5.4482  -5.4426  -5.4264  -5.4211  -5.4119  -5.3888  -5.3478  -5.3350
    -5.3230  -5.2907  -5.2583  -5.2460  -5.2384  -5.1903  -5.1888  -5.1517
    -5.1353  -5.0813  -5.0749  -5.0703  -5.0341  -4.9499  -4.8343  -4.8158
    -4.7471  -4.7387  -4.6267  -4.6043  -4.5809  -4.5794  -4.5628  -4.5412
    -4.4617  -4.4494  -4.4388  -4.4332  -4.4271  -4.4193  -4.4114  -4.3861
    -4.3764  -4.3735  -4.3703  -4.3475  -4.3156  -4.3013  -4.2851  -4.2745
    -4.2519  -4.2095  -4.2004  -4.1720  -4.1621  -4.1508  -4.1287  -4.1254
    -4.0920  -4.0795  -4.0575  -4.0527  -4.0134  -4.0119  -3.9445  -3.8252
    -3.7828  -3.7522  -3.7405  -3.6690  -3.6329  -3.5685  -3.5508  -3.4919
    -3.4899  -3.4853  -3.4751  -3.4717  -3.4666  -3.4622  -3.4448  -3.4303
    -3.4234  -3.4131  -3.4047  -3.3857  -3.3845  -3.3503  -3.2809  -3.2473
    -3.2449  -3.2312  -3.2106  -3.1923  -3.1779  -3.1647  -3.1547  -3.1363
    -3.1150  -3.1066  -3.0796  -3.0118  -2.9955  -2.9607  -2.9600  -2.9296
    -2.9028  -2.8516  -2.7662  -2.7493  -2.7411  -2.7295  -2.6824  -2.6359
    -2.5646  -2.5493  -2.5291  -2.5282  -2.4993  -2.4730  -2.4657  -2.4655
    -2.4268  -2.3639  -2.3451  -2.3333  -2.3307  -2.3203  -2.3157  -2.3090
    -2.2740  -2.2583  -2.2382  -2.2302  -2.2298  -2.2067  -2.1912  -2.1882
    -2.1393  -2.0649  -2.0602  -2.0599  -2.0200  -2.0141  -1.9969  -1.9902
    -1.9192  -1.9008  -1.8972  -1.8957  -1.8888  -1.8873  -1.8701  -1.8450
    -1.8446  -1.8360  -1.8259  -1.8257  -1.7844  -1.7631  -1.7558  -1.7510
    -1.7304  -1.7300  -1.7285  -1.6870  -1.6647  -1.6643  -1.6571  -1.6465
    -1.6376  -1.6343  -1.5948  -1.5418  -1.5169  -1.4943  -1.4406  -1.3926
    -1.3096  -1.3076  -1.2715  -1.2657  -1.2463  -1.2456  -1.1882  -1.1870
    -1.1656  -1.0547  -1.0110  -1.0068  -0.9855  -0.9814  -0.9653  -0.9264
    -0.8981  -0.8621  -0.8540  -0.8445  -0.8375  -0.8275  -0.8078  -0.8050
    -0.7917  -0.7722  -0.7658  -0.7430  -0.6723  -0.6708  -0.6558  -0.6284
    -0.6154  -0.6089  -0.5960  -0.5542  -0.5173  -0.4841  -0.4713  -0.3912
    -0.3690  -0.3065  -0.2974   0.3255   0.3345   0.4937   0.4994   0.5179
     1.7419   1.7483   1.7600   1.7673   1.7676   1.7761   1.7899   1.7961
[...]
    -5.1288  -5.0796  -5.0576  -5.0575  -5.0401  -4.9525  -4.8276  -4.8181
    -4.7401  -4.7387  -4.6198  -4.6019  -4.5808  -4.5761  -4.5561  -4.5431
    -4.4597  -4.4443  -4.4379  -4.4312  -4.4220  -4.4185  -4.4078  -4.3811
    -4.3738  -4.3734  -4.3655  -4.3476  -4.3134  -4.2981  -4.2788  -4.2713
    -4.2518  -4.2041  -4.1984  -4.1731  -4.1614  -4.1502  -4.1171  -4.1134
    -4.0980  -4.0822  -4.0551  -4.0527  -4.0203  -4.0168  -3.9148  -3.8270
    -3.7714  -3.7553  -3.7383  -3.6675  -3.6242  -3.5723  -3.5533  -3.4983
    -3.4960  -3.4843  -3.4836  -3.4835  -3.4650  -3.4543  -3.4422  -3.4392
    -3.4169  -3.4145  -3.4020  -3.3848  -3.3818  -3.3483  -3.2566  -3.2529
    -3.2359  -3.2286  -3.2091  -3.1867  -3.1750  -3.1605  -3.1531  -3.1433
    -3.0970  -3.0823  -3.0725  -3.0087  -2.9952  -2.9649  -2.9504  -2.9333
    -2.8900  -2.8574  -2.7642  -2.7418  -2.7342  -2.7250  -2.6664  -2.6408
    -2.5678  -2.5418  -2.5314  -2.5306  -2.4877  -2.4682  -2.4646  -2.4595
    -2.4135  -2.3537  -2.3454  -2.3322  -2.3306  -2.3219  -2.3149  -2.3022
    -2.2667  -2.2558  -2.2366  -2.2323  -2.2268  -2.2054  -2.2013  -2.1790
    -2.1353  -2.0592  -2.0568  -2.0532  -2.0192  -2.0101  -2.0006  -1.9944
    -1.9198  -1.8993  -1.8967  -1.8915  -1.8879  -1.8848  -1.8659  -1.8447
    -1.8441  -1.8302  -1.8280  -1.8145  -1.7894  -1.7646  -1.7527  -1.7483
    -1.7403  -1.7249  -1.7157  -1.6953  -1.6690  -1.6559  -1.6541  -1.6478
    -1.6330  -1.6044  -1.5791  -1.5581  -1.5308  -1.5075  -1.4362  -1.3634
    -1.3136  -1.3074  -1.2888  -1.2763  -1.2521  -1.2437  -1.1889  -1.1828
    -1.1780  -1.0563  -1.0120  -1.0016  -0.9847  -0.9805  -0.9741  -0.9219
    -0.8874  -0.8624  -0.8600  -0.8502  -0.8275  -0.8265  -0.8047  -0.7983
    -0.7793  -0.7677  -0.7551  -0.7464  -0.6630  -0.6572  -0.6478  -0.6236
    -0.6206  -0.6129  -0.5685  -0.5584  -0.5211  -0.4728  -0.4574  -0.3807
    -0.3676  -0.3044  -0.2753   0.2538   0.2623   0.4738   0.4834   0.5968
     1.7309   1.7490   1.7549   1.7572   1.7635   1.7765   1.7969   1.7978
     1.8127   1.8228   1.8287   1.8597   1.8610   1.8772   1.8864   1.9226
     1.9318   1.9807   2.0060   2.0349   2.0404   2.0641   2.0880   2.1667
     2.1718   2.1925   2.2297   2.2704   2.2968   2.3367   2.3544   2.3565
     2.3691   2.3819   2.3846   2.3950   2.4049   2.4082   2.4295   2.4312
     2.4347   2.4478   2.4538   2.4555   2.4623   2.4799   2.4896   2.4927
     2.4987   2.5073   2.5380   2.5397   2.5540   2.5740   2.5769   2.6120
     2.6207   2.6252   2.6611   2.6739   2.7048   2.7182   2.7212   2.7290
     2.7446   2.7448   2.7491   2.7648   2.7651   2.7916   2.7933   2.7998
     2.8099   2.8253   2.8270   2.8281   2.8329   2.8359   2.8485   2.8507
     2.8884   2.9015   2.9058   2.9569   2.9973   3.0084   3.0441   3.0657
     3.1409

     the Fermi energy is     0.3186 ev

!    total energy              =  -39671.72219812 Ry
     Harris-Foulkes estimate   =  -39671.72219812 Ry
     estimated scf accuracy    <          4.8E-10 Ry

     total all-electron energy =  -1479374.837567 Ry

     The total energy is the sum of the following terms:

     one-electron contribution =  -35461.25936590 Ry
     hartree contribution      =   17831.54217677 Ry
     xc contribution           =   -2368.78339308 Ry
     ewald contribution        =   12656.41857041 Ry
     one-center paw contrib.   =  -32329.64184412 Ry
     smearing contrib. (-TS)   =       0.00165781 Ry

     convergence has been achieved in  14 iterations

     negative rho (up, down):  4.946E-02 0.000E+00

     Forces acting on atoms (cartesian axes, Ry/au):

     atom    1 type  1   force =    -0.00048422   -0.00012264   -0.00000451
     atom    2 type  1   force =     0.00012941   -0.00007051   -0.00000111
     atom    3 type  1   force =     0.00001709    0.00018834    0.00000061
     atom    4 type  1   force =    -0.00009001   -0.00004069    0.00000095
     atom    5 type  1   force =    -0.00033746   -0.00040608    0.00000391
     atom    6 type  1   force =     0.00009391    0.00005047   -0.00000031
     atom    7 type  1   force =     0.00010517    0.00000153   -0.00000605
     atom    8 type  1   force =    -0.00013705   -0.00000316   -0.00000294
     atom    9 type  1   force =     0.00052543   -0.00010691    0.00000216
     atom   10 type  1   force =    -0.00010641    0.00006327   -0.00000010
     atom   11 type  1   force =     0.00036462   -0.00039840   -0.00000555
     atom   12 type  1   force =    -0.00000979    0.00036428    0.00000435
     atom   13 type  1   force =    -0.00002019    0.00012870    0.00000488
     atom   14 type  1   force =     0.00001230    0.00013865   -0.00000215
     atom   15 type  1   force =    -0.00002788    0.00001496   -0.00001547
     atom   16 type  1   force =    -0.00018305    0.00017369   -0.00000230
     atom   17 type  1   force =     0.00014293    0.00019092   -0.00000259
     atom   18 type  1   force =     0.00009975   -0.00006423   -0.00000230
     atom   19 type  1   force =    -0.00011016   -0.00008188   -0.00000239
     atom   20 type  1   force =     0.00009915   -0.00027031    0.00000095
     atom   21 type  1   force =     0.00000367   -0.00000298    0.00000346
     atom   22 type  1   force =    -0.00009655   -0.00022537   -0.00000024
     atom   23 type  1   force =    -0.00012471   -0.00005137    0.00000651
     atom   24 type  1   force =     0.00036739   -0.00021132    0.00000388
     atom   25 type  1   force =     0.00028313    0.00005137    0.00000002
     atom   26 type  1   force =    -0.00024765    0.00007682   -0.00000226
     atom   27 type  1   force =    -0.00032574   -0.00017459    0.00000219
     atom   28 type  1   force =    -0.00006721    0.00012153   -0.00000430
     atom   29 type  1   force =    -0.00000702    0.00009900    0.00000674
     atom   30 type  1   force =     0.00005554   -0.00009357   -0.00000263
     atom   31 type  1   force =    -0.00015039   -0.00011402   -0.00000117
     atom   32 type  1   force =     0.00000835   -0.00011093   -0.00000341
     atom   33 type  1   force =     0.00012881   -0.00008135    0.00000571
     atom   34 type  1   force =     0.00018535    0.00049260   -0.00000834
     atom   35 type  1   force =    -0.00013494    0.00048435    0.00000429
     atom   36 type  2   force =     0.00025196   -0.00034081    0.00001369
     atom   37 type  2   force =    -0.00032482    0.00005494   -0.00024260
     atom   38 type  2   force =     0.00036834    0.00007785   -0.00025668
     atom   39 type  2   force =    -0.00017882   -0.00029483    0.00001568
     atom   40 type  2   force =    -0.00006100   -0.00005788   -0.00027385
     atom   41 type  2   force =     0.00048130   -0.00058131   -0.00045286
     atom   42 type  2   force =    -0.00001561    0.00016864   -0.00061597
     atom   43 type  2   force =    -0.00049367   -0.00055974   -0.00046166
     atom   44 type  2   force =     0.00025013   -0.00034260   -0.00001167
     atom   45 type  2   force =    -0.00032168    0.00005492    0.00023647
     atom   46 type  2   force =     0.00037046    0.00008058    0.00024737
     atom   47 type  2   force =    -0.00018221   -0.00029399   -0.00001658
     atom   48 type  2   force =    -0.00005826   -0.00005859    0.00027730
     atom   49 type  2   force =     0.00047860   -0.00057692    0.00045896
     atom   50 type  2   force =    -0.00001305    0.00016059    0.00061922
     atom   51 type  2   force =    -0.00049389   -0.00055919    0.00046223
     atom   52 type  2   force =    -0.00047360   -0.00030859    0.00075372
     atom   53 type  2   force =     0.00052624   -0.00030809    0.00079714
     atom   54 type  2   force =     0.00009293   -0.00005391   -0.00026358
     atom   55 type  2   force =     0.00001200    0.00056025    0.00076789
     atom   56 type  2   force =    -0.00047334   -0.00029283   -0.00074728
     atom   57 type  2   force =     0.00052396   -0.00031276   -0.00078649
     atom   58 type  2   force =     0.00009153   -0.00005517    0.00027231
     atom   59 type  2   force =     0.00002196    0.00056443   -0.00074690
     atom   60 type  2   force =    -0.00017578    0.00033183    0.00001258
     atom   61 type  2   force =    -0.00027685    0.00071072   -0.00045991
     atom   62 type  2   force =    -0.00002344    0.00002981   -0.00042568
     atom   63 type  2   force =    -0.00004020    0.00001873   -0.00043513
     atom   64 type  2   force =    -0.00002089    0.00007298    0.00008617
     atom   65 type  2   force =    -0.00016174   -0.00032366   -0.00023738
     atom   66 type  2   force =     0.00008412   -0.00004906   -0.00060862
     atom   67 type  2   force =    -0.00004339    0.00000604   -0.00043069
     atom   68 type  2   force =     0.00000633   -0.00002115   -0.00053111
     atom   69 type  2   force =     0.00000336   -0.00000284   -0.00053167
     atom   70 type  2   force =     0.00020337    0.00030074   -0.00024459
     atom   71 type  2   force =    -0.00075717   -0.00011542   -0.00046101
     atom   72 type  2   force =     0.00010618   -0.00006184    0.00009030
     atom   73 type  2   force =     0.00002233    0.00000724   -0.00053385
     atom   74 type  2   force =    -0.00006808   -0.00001655    0.00008142
     atom   75 type  2   force =    -0.00037361   -0.00001435    0.00001399
     atom   76 type  2   force =    -0.00017646    0.00034045   -0.00001039
     atom   77 type  2   force =    -0.00027361    0.00071021    0.00045621
     atom   78 type  2   force =    -0.00001765    0.00004028    0.00041241
     atom   79 type  2   force =    -0.00004696    0.00002546    0.00041998
     atom   80 type  2   force =    -0.00001889    0.00007433   -0.00007833
     atom   81 type  2   force =    -0.00016264   -0.00032356    0.00023859
     atom   82 type  2   force =     0.00008669   -0.00004875    0.00060327
     atom   83 type  2   force =    -0.00004369    0.00000240    0.00040809
     atom   84 type  2   force =     0.00001027   -0.00001940    0.00053104
     atom   85 type  2   force =     0.00000314   -0.00000230    0.00052802
     atom   86 type  2   force =     0.00020093    0.00030141    0.00024085
     atom   87 type  2   force =    -0.00075275   -0.00012530    0.00045813
     atom   88 type  2   force =     0.00010950   -0.00006007   -0.00008655
     atom   89 type  2   force =     0.00002169    0.00000692    0.00053231
     atom   90 type  2   force =    -0.00007160   -0.00001748   -0.00007827
     atom   91 type  2   force =    -0.00038078   -0.00001370   -0.00000193
     atom   92 type  2   force =     0.00024104    0.00070409   -0.00046409
     atom   93 type  2   force =     0.00016235    0.00030040    0.00001896
     atom   94 type  2   force =    -0.00014580   -0.00006662   -0.00061784
     atom   95 type  2   force =     0.00011688   -0.00035616   -0.00024761
     atom   96 type  2   force =     0.00074469   -0.00012094   -0.00046128
     atom   97 type  2   force =    -0.00021103    0.00025312   -0.00024325
     atom   98 type  2   force =     0.00001910    0.00008572   -0.00027840
     atom   99 type  2   force =     0.00041343   -0.00004264    0.00001627
     atom  100 type  2   force =     0.00023933    0.00070707    0.00046044
     atom  101 type  2   force =     0.00016312    0.00030720   -0.00001682
     atom  102 type  2   force =    -0.00014765   -0.00006511    0.00061208
     atom  103 type  2   force =     0.00011601   -0.00035941    0.00024682
     atom  104 type  2   force =     0.00074418   -0.00012933    0.00045631
     atom  105 type  2   force =    -0.00021244    0.00025207    0.00024081
     atom  106 type  2   force =     0.00001917    0.00007994    0.00029835
     atom  107 type  2   force =     0.00042486   -0.00004866   -0.00000528

     Total force =     0.005243     Total SCF correction =     0.000069

     bfgs converged in  11 scf cycles and  10 bfgs steps
     (criteria: energy <  1.0E-04 Ry, force <  1.0E-03 Ry/Bohr)

     End of BFGS Geometry Optimization

     Final energy   =  -39671.7221981212 Ry
Begin final coordinates

ATOMIC_POSITIONS (angstrom)
W       -3.275455224   7.545506601   7.240041064
W        0.021307581   7.578844750   7.239845794
W        3.279806707   7.575090211   7.239987566
W        6.538039570   7.578205477   7.239857134
W       -4.942004915  10.433739526   7.240126064
W       -1.649293937  10.408609316   7.240141833
W        1.638210858  10.415805433   7.239993707
W        4.922806579  10.415786112   7.239999762
W        9.834484326   7.544692245   7.240054326
W        8.209828397  10.408398108   7.240133378
W       11.502179932  10.433260369   7.240116606
W       -6.551843348  13.266654245   7.240196563
W       -3.263939414  13.271027883   7.239848839
W        0.001689258  13.251195676   7.239987451
W        3.280973657  13.254201405   7.239829135
W       -8.190959253  16.096258798   7.240011028
W       -4.912753571  16.095838008   7.240045954
W       -1.637358359  16.093751328   7.240008643
W        1.643965426  16.095567141   7.239942918
W        0.004532282   1.900224543   7.239957285
W        3.280009690   1.901349795   7.239844500
W        6.555443095   1.899195231   7.239977749
W        9.826245925   1.883724105   7.239849153
W       -1.627045718   4.734370174   7.240095570
W        1.643276362   4.738440863   7.239993270
W        4.915963320   4.737899642   7.239993996
W        8.186090820   4.733241768   7.240108272
W        6.559981403  13.251522708   7.239984131
W        9.825069331  13.271480025   7.239876105
W        4.917651287  16.095934374   7.239934777
W        8.198661130  16.094721542   7.239992254
W       13.112408871   1.916490400   7.240103906
W       16.398503675   1.884734652   7.239828853
W       11.444305654   4.755501980   7.240041474
W       14.778906743   4.756290278   7.240115593
Se      -1.615573641   6.627967232   5.566490304
Se       1.648387172   6.628385563   5.560547624
Se       4.910840446   6.627861321   5.560577333
Se       8.174460753   6.626915061   5.566547858
Se      -3.301387073   9.455533213   5.576054124
Se      -0.003075683   9.471194375   5.564637249
Se       3.280442635   9.470569191   5.566538626
Se       6.563623131   9.470708292   5.564673482
Se      -1.615443667   6.628050463   8.913480188
Se       1.648325106   6.628425583   8.919331450
Se       4.910887698   6.627897170   8.919315333
Se       8.174328941   6.626998816   8.913444816
Se      -3.301391419   9.455490022   8.904159066
Se      -0.002971395   9.471062669   8.915331429
Se       3.280432353   9.470569885   8.913453659
Se       6.563536278   9.470587657   8.915312596
Se      11.463662875   6.625959199   5.578318662
Se      14.759273017   6.627099048   5.578689472
Se       9.861424795   9.454882742   5.576096588
Se      13.112403697   9.481735066   5.578443996
Se      11.463567327   6.625960460   8.901741456
Se      14.759342839   6.627032714   8.901472872
Se       9.861425235   9.454839753   8.904104341
Se      13.112462550   9.481898707   8.901887126
Se      -4.906224979  12.329872929   5.566466478
Se      -1.637494269  12.302949239   5.564696972
Se       1.641723759  12.307702970   5.564865745
Se       4.920172802  12.307765216   5.564866928
Se      -6.551849494  15.153021876   5.562698576
Se      -3.273244910  15.155173264   5.560531984
Se       0.004360110  15.145916778   5.566490039
Se       3.281004795  15.146986713   5.564789897
Se       1.642739056   0.956516040   5.563990870
Se       4.917279098   0.955972410   5.563976101
Se       8.189862526   0.949635729   5.560548689
Se      11.477791496   0.959112545   5.564647447
Se       0.006715405   3.791171527   5.562604957
Se       3.279551478   3.791590350   5.563936776
Se       6.552387719   3.790085333   5.562642633
Se       9.820116692   3.776454861   5.566369418
Se      -4.906012353  12.329950920   8.913616476
Se      -1.637544812  12.303089213   8.915279267
Se       1.641795280  12.307735751   8.915007929
Se       4.920103017  12.307810576   8.915018955
Se      -6.551871720  15.153129629   8.917495492
Se      -3.273205041  15.155102127   8.919400157
Se       0.004385980  15.145934770   8.913490044
Se       3.281011182  15.146927202   8.915043322
Se       1.642790483   0.956593705   8.915869114
Se       4.917204404   0.956067773   8.915938180
Se       8.189935183   0.949686355   8.919331548
Se      11.477653263   0.959093651   8.915270661
Se       0.006765308   3.791114424   8.917456327
Se       3.279551544   3.791495368   8.915950219
Se       6.552335318   3.790045568   8.917442540
Se       9.820157442   3.776312732   8.913602561
Se       8.198888572  12.302983907   5.564736646
Se      11.467068131  12.329809137   5.566623630
Se       6.557422598  15.146427473   5.566513140
Se       9.834436818  15.155764571   5.560529143
Se      14.747447926   0.959563111   5.564661955
Se      18.035080617   0.950772690   5.560516152
Se      13.111821989   3.823766536   5.576049897
Se      16.403465335   3.777685146   5.566452465
Se       8.198919749  12.303109314   8.915245109
Se      11.466888751  12.329866410   8.913491666
Se       6.557405243  15.146451406   8.913445519
Se       9.834410991  15.155736789   8.919394861
Se      14.747592051   0.959544789   8.915233427
Se      18.035027205   0.950824628   8.919331108
Se      13.111796101   3.823785117   8.904104644
Se      16.403472763   3.777505784   8.913533723
End final coordinates



     Writing output data file v.save/
 
     init_run     :     38.38s CPU     38.81s WALL (       1 calls)
     electrons    :  14875.52s CPU  14952.15s WALL (      11 calls)
     update_pot   :     41.68s CPU     41.71s WALL (      10 calls)
     forces       :    175.73s CPU    176.94s WALL (      11 calls)

     Called by init_run:
     wfcinit      :     33.77s CPU     34.10s WALL (       1 calls)
     potinit      :      2.89s CPU      2.92s WALL (       1 calls)
     hinit0       :      1.26s CPU      1.28s WALL (       1 calls)

     Called by electrons:
     c_bands      :  12872.40s CPU  12935.65s WALL (     169 calls)
     sum_band     :   1615.94s CPU   1623.97s WALL (     169 calls)
     v_of_rho     :     38.25s CPU     38.38s WALL (     169 calls)
     newd         :     27.57s CPU     31.64s WALL (     169 calls)
     PAW_pot      :    364.04s CPU    363.94s WALL (     179 calls)
     mix_rho      :      3.45s CPU      3.46s WALL (     169 calls)

     Called by c_bands:
     init_us_2    :     47.29s CPU     47.57s WALL (    1440 calls)
     cegterg      :  12727.51s CPU  12789.98s WALL (     677 calls)

     Called by sum_band:
     sum_band:bec :      6.74s CPU      6.74s WALL (     716 calls)
     addusdens    :     30.78s CPU     36.07s WALL (     169 calls)

     Called by *egterg:
     h_psi        :   6164.80s CPU   6189.36s WALL (    2637 calls)
     s_psi        :   1174.72s CPU   1174.60s WALL (    2637 calls)
     g_psi        :     12.37s CPU     12.35s WALL (    1956 calls)
     cdiaghg      :   2349.76s CPU   2363.45s WALL (    2549 calls)

     Called by h_psi:
     h_psi:pot    :   6145.73s CPU   6154.06s WALL (    2637 calls)
     h_psi:calbec :   1191.24s CPU   1192.85s WALL (    2637 calls)
     vloc_psi     :   3773.79s CPU   3780.56s WALL (    2637 calls)
     add_vuspsi   :   1180.68s CPU   1180.63s WALL (    2637 calls)

     General routines
     calbec       :   1881.98s CPU   1884.70s WALL (    3529 calls)
     fft          :     13.99s CPU     14.05s WALL (    2012 calls)
     ffts         :      0.86s CPU      0.86s WALL (     169 calls)
     fftw         :   4244.43s CPU   4256.11s WALL ( 2044014 calls)
 
     Parallel routines
     fft_scatt_xy :    696.57s CPU    699.41s WALL ( 2046195 calls)
     fft_scatt_yz :   2011.08s CPU   2004.60s WALL ( 2046195 calls)
 
     PWSCF        :     4h13m CPU       13h 4m WALL

      14h
 
   This run was terminated on:  21:50:43  16Jan2019            

=------------------------------------------------------------------------------=
   JOB DONE.
=------------------------------------------------------------------------------=
